LAMMPS (24 Dec 2020)
OMP_NUM_THREADS environment is not set. Defaulting to 1 thread. (src/comm.cpp:94)
  using 1 OpenMP thread(s) per MPI task
Reading data file ...
  orthogonal box = (-14.800000 -14.800000 -14.800000) to (14.800000 14.800000 14.800000)
  2 by 2 by 4 MPI processor grid
  reading atoms ...
  2160 atoms
  reading velocities ...
  2160 velocities
  scanning bonds ...
  4 = max bonds/atom
  scanning angles ...
  6 = max angles/atom
  scanning dihedrals ...
  9 = max dihedrals/atom
  reading bonds ...
  1860 bonds
  reading angles ...
  2700 angles
  reading dihedrals ...
  3060 dihedrals
Finding 1-2 1-3 1-4 neighbors ...
  special bond factors lj:    0        0        0.5     
  special bond factors coul:  0        0        0.5     
     4 = max # of 1-2 neighbors
     6 = max # of 1-3 neighbors
     9 = max # of 1-4 neighbors
    10 = max # of special neighbors
  special bonds CPU = 0.002 seconds
  read_data CPU = 0.080 seconds
Finding SHAKE clusters ...
       0 = # of size 2 clusters
     420 = # of size 3 clusters
     120 = # of size 4 clusters
       0 = # of frozen angles
  find clusters CPU = 0.001 seconds
PPPM initialization ...
  using 12-bit tables for long-range coulomb (src/kspace.cpp:339)
  G vector (1/distance) = 0.2678613
  grid = 27 27 27
  stencil order = 5
  estimated absolute RMS force accuracy = 0.00030804703
  estimated relative force accuracy = 9.2767448e-07
  using double precision FFTW3
  3d grid and FFT values/proc = 5600 1458
Neighbor list info ...
  update every 1 steps, delay 5 steps, check yes
  max neighbors/atom: 10000, page size: 100000
  master list distance cutoff = 14
  ghost atom cutoff = 14
  binsize = 7, bins = 5 5 5
  1 neighbor lists, perpetual/occasional/extra = 1 0 0
  (1) pair lj/cut/coul/long, perpetual
      attributes: half, newton on
      pair build: half/bin/newton
      stencil: half/bin/3d/newton
      bin: standard
Setting up Verlet run ...
  Unit style    : real
  Current step  : 0
  Time step     : 1
Per MPI rank memory allocation (min/avg/max) = 13.26 | 13.28 | 13.31 Mbytes
Step Temp PotEng KinEng E_vdwl E_coul E_long Press Volume Lx Density 
       0    309.29688   -11033.566    1621.7193   -1169.1879    2072.9657   -13051.416    -2640.337    25934.336         29.6    1.0054192 
    5000    294.27477   -11119.523    1542.9547   -1215.5677    1992.3968   -13057.081    483.33158    24693.438    29.120167    1.0559436 
   10000    303.94355   -11069.704    1593.6505   -1228.8828    1963.0359    -13050.53    1114.7985    24560.732    29.067907    1.0616491 
   15000    297.85699   -11087.532    1561.7371   -1217.9492    1971.7844   -13050.663    207.07518    24445.748    29.022475    1.0666427 
   20000     307.6628   -11099.272    1613.1514   -1193.7667    1977.8332   -13052.889     1530.068    24486.092    29.038432    1.0648852 
   25000     291.2906   -11103.325     1527.308   -1221.0371    1996.1958   -13058.584    -66.23661    24403.269    29.005654    1.0684994 
   30000    297.77012   -11089.143    1561.2817   -1218.1089    1979.8634   -13055.904   -1781.0998    24525.751    29.054101    1.0631633 
   35000    305.05104   -11149.105    1599.4573   -1232.5201     1996.835   -13056.331    276.21564    24614.725    29.089192    1.0593203 
   40000    295.69147   -11171.414    1550.3828   -1198.5048    1907.6227   -13056.651    177.68443    24296.644    28.963348    1.0731885 
   45000     301.2264    -11106.52    1579.4038   -1227.8579     1941.354   -13055.175   -1312.5182    24270.529    28.952968    1.0743432 
   50000      308.255   -11135.006    1616.2564   -1262.6901    1994.5524   -13061.314   -500.62355    24380.467    28.996617    1.0694987 
   55000    298.38687   -11148.416    1564.5154   -1220.5474     1909.107   -13054.316    1205.3542    24326.417    28.975174     1.071875 
   60000    293.24577   -11142.035    1537.5594   -1195.6381    1919.6542   -13057.487    526.33125    24416.719    29.010982    1.0679108 
   65000     291.5721   -11143.664    1528.7839   -1221.7819    1943.7229    -13054.86   -485.53196    24433.884    29.017779    1.0671606 
   70000    288.13727   -11123.663    1510.7743   -1289.1481    2050.9212   -13055.913    -839.0033    24532.767    29.056871    1.0628592 
   75000    297.98184   -11152.228    1562.3917   -1256.4678    2002.9671   -13055.853    619.55507    24501.027    29.044334    1.0642361 
   80000    302.47408   -11131.082    1585.9457   -1192.8967    1978.4582   -13057.623    1812.6109    24643.671     29.10059    1.0580761 
   85000    295.02537   -11115.442    1546.8903   -1249.4603    2001.8074   -13052.062    379.06377    24633.367    29.096534    1.0585186 
   90000    302.02931   -11076.824    1583.6136   -1203.4298     1943.176   -13052.721    243.10346    24568.619    29.071019    1.0613082 
   95000    293.74496    -11177.09    1540.1767   -1241.1863    1987.1419   -13055.578    429.24372    24179.691    28.916801    1.0783793 
  100000    286.91916   -11186.521    1504.3874   -1257.1636    1927.8971   -13056.988   -143.95011    24256.766    28.947494    1.0749528 
  105000    303.67681    -11112.64    1592.2519   -1236.9196    1972.9384   -13051.201    476.32186    24225.432    28.935024    1.0763431 
  110000    308.57534   -11129.991     1617.936    -1258.043    1995.7634   -13052.229    280.86404    24494.175    29.041627    1.0645338 
  115000    297.23127   -11139.702    1558.4563   -1242.4457    1951.6254   -13052.508    457.84843    24296.213    28.963177    1.0732075 
  120000    283.53667   -11119.011    1486.6522   -1215.8821    1958.7303   -13058.164    438.59438    24378.741    28.995933    1.0695745 
  125000    301.50696   -11140.677    1580.8748    -1229.489    1993.1975   -13057.979    216.10348    24385.723    28.998701    1.0692682 
  130000    289.12565   -11153.161    1515.9566   -1221.5933    1969.7411   -13053.291     1545.143    24379.136     28.99609    1.0695571 
  135000    293.17754   -11156.074    1537.2016   -1237.2442    1973.1049   -13051.586   -1314.1608    24523.966    29.053396    1.0632407 
  140000    296.07087   -11108.025    1552.3721   -1239.9833    1976.0398   -13058.338   -454.57615     24500.49    29.044122    1.0642595 
  145000    293.12859   -11188.676     1536.945    -1252.754    1954.5036   -13058.482    730.42193    24289.537    28.960524    1.0735025 
  150000    304.41324   -11125.838    1596.1132   -1214.0419    1950.3451   -13060.112   -341.20415    24577.829    29.074651    1.0609105 
  155000    309.71639   -11097.791    1623.9189   -1188.1474     1894.322    -13060.05    879.36234    24548.434    29.063055    1.0621809 
  160000    304.95904   -11166.417    1598.9749    -1224.466    1932.1652   -13060.875    572.05899     24426.46     29.01484    1.0674849 
  165000    293.23488   -11202.901    1537.5023   -1255.1783    1949.9392   -13058.618    1222.3409    24409.365     29.00807    1.0682325 
  170000    286.70585   -11178.934     1503.269   -1186.3411    1913.6363   -13058.073     2249.475     24278.45    28.956117    1.0739927 
  175000    291.76795   -11188.133    1529.8108   -1231.9627     1908.697   -13059.676    283.77179    24189.123    28.920561    1.0779588 
  180000    294.37921   -11098.559    1543.5023   -1229.7482    1963.7786   -13053.902   -80.941316    24441.342    29.020731     1.066835 
  185000    294.92498   -11195.019    1546.3639   -1258.8133     1941.505   -13056.112    356.42154    24113.687    28.890466     1.081331 
  190000     303.9246   -11098.557    1593.5511   -1210.5054    1962.4975   -13060.205    929.08316     24366.56    28.991103    1.0701091 
  195000    306.19525   -11129.229    1605.4567   -1222.9079    1968.0314   -13052.704   -657.67271    24761.042    29.146717    1.0530606 
  200000    303.67114   -11225.134    1592.2221   -1219.1801    1920.6463   -13057.478   -851.70947    24386.479    28.999001    1.0692351 
  205000    301.84641   -11152.247    1582.6547   -1284.9527    1969.2308   -13059.501     747.5086     24553.36    29.064999    1.0619678 
  210000    294.23479   -11202.348     1542.745   -1274.8628    1965.3322   -13054.954   -374.65007    24351.995    28.985325    1.0707492 
  215000     293.3615   -11163.533    1538.1662   -1222.3509    1879.0223   -13058.776    171.36046    24044.448    28.862787    1.0844449 
  220000    288.51676   -11223.204     1512.764   -1280.7994    1929.2375   -13056.246   -1998.5532    24414.405    29.010066     1.068012 
  225000     303.0515   -11152.854    1588.9732    -1273.065    1962.4401   -13058.583    475.77036    24283.624    28.958174    1.0737639 
  230000    285.23134   -11152.413    1495.5378    -1232.859    1936.5621   -13057.805    96.624071    24481.098    29.036457    1.0651025 
  235000    292.88568    -11119.77    1535.6714   -1223.6455    1925.0009   -13057.756    -382.1477    24354.194    28.986198    1.0706525 
  240000    304.80724   -11187.545     1598.179   -1244.1868    1892.5473   -13058.927    342.13262    24235.884    28.939185     1.075879 
  245000    300.69049    -11160.32    1576.5939   -1298.0187    1975.2285   -13056.292    1486.0225    24159.072    28.908579    1.0792997 
  250000    292.80748   -11199.149    1535.2613   -1255.1674    1898.3201   -13056.067    190.24062    24236.885    28.939583    1.0758346 
  255000    306.82748   -11214.887    1608.7716    -1256.103    1921.5913   -13055.557   -1076.9564    24232.514    28.937843    1.0760286 
  260000    297.00566   -11188.916    1557.2734    -1255.469    1945.1181   -13053.348    6.7643809        24388    28.999604    1.0691684 
  265000    296.75281   -11170.474    1555.9476   -1295.1478    1973.1336   -13059.718   -518.55518    24228.608    28.936288    1.0762021 
  270000     291.0688   -11156.936     1526.145   -1251.3566    1942.0036   -13060.334    54.299227     24370.82    28.992792    1.0699221 
  275000    301.23717   -11206.507    1579.4603   -1244.7937    1909.0434   -13056.929   -478.46672    24088.647    28.880462    1.0824551 
  280000    298.77612   -11130.096    1566.5563   -1247.1007    1922.8522   -13056.348    40.138544    24216.722    28.931556    1.0767303 
  285000    303.30959   -11134.359    1590.3264   -1195.8882    1924.1158   -13057.626      1250.44    24195.029    28.922914    1.0776957 
  290000    297.79722   -11162.202    1561.4238   -1230.7947    1920.9682   -13063.845    310.09044    24428.177     29.01552    1.0674099 
  295000    305.13862   -11118.659    1599.9165   -1189.0056    1944.5574   -13052.583    -1277.181    24602.553    29.084397    1.0598444 
  300000    300.85716   -11201.459    1577.4678   -1231.9519    1929.5963   -13056.305   -185.08024    24266.876    28.951515     1.074505 
  305000    302.82397   -11123.666    1587.7802   -1189.9807    1911.8958   -13061.788   -289.57354    24441.713    29.020878    1.0668188 
  310000     297.9753   -11151.896    1562.3575   -1244.7993    1973.0558   -13055.396    164.55058    24464.154    29.029757    1.0658402 
  315000    292.82561   -11144.929    1535.3564   -1211.4043    1949.4406   -13057.133    1390.2759    24270.387    28.952911    1.0743495 
  320000    301.59775   -11124.195    1581.3509   -1212.5341    1922.2387   -13058.744   -896.34603    24548.745    29.063178    1.0621674 
  325000    291.27852   -11189.894    1527.2446   -1220.4703    1917.5357   -13058.659   -46.554377    24229.319    28.936571    1.0761705 
  330000    293.80874   -11155.493    1540.5112    -1245.786    1987.2646   -13057.589   -353.91036    24554.609    29.065492    1.0619138 
  335000    294.73369   -11117.766    1545.3609   -1229.7688    1977.4695   -13056.604   -1327.7065    24696.833    29.121501    1.0557984 
  340000    302.68614   -11159.703    1587.0575    -1282.622    2010.6096    -13056.98   -1427.1593    24456.652    29.026789    1.0661671 
  345000    294.56616   -11179.688    1544.4825   -1264.4291    1939.3982    -13056.04    1154.1499    24174.581    28.914764    1.0786073 
  350000    308.24733   -11186.311    1616.2163   -1266.4535     1947.673   -13058.188    17.105242    24190.943    28.921286    1.0778777 
  355000    301.96292   -11170.174    1583.2655   -1276.1117    1979.6031   -13063.086   -444.89086    24314.828    28.970572    1.0723859 
  360000    299.53934   -11152.263    1570.5581   -1178.8682    1905.1271   -13056.317    952.61998    24285.647    28.958978    1.0736744 
  365000    298.22659   -11176.855     1563.675   -1256.7941    1948.5732   -13055.588   -511.99681     24272.58    28.953783    1.0742524 
  370000    302.60545   -11237.466    1586.6345   -1160.9462     1845.464   -13064.304    666.29791    24212.561    28.929899    1.0769153 
  375000    308.61624   -11164.442    1618.1505   -1262.0515    1938.6109   -13055.534   -1176.3534    24217.341    28.931802    1.0767028 
  380000    293.51387    -11141.12    1538.9651   -1262.9525     1948.176   -13055.293   -41.114731    24250.156    28.944864    1.0752458 
  385000      293.549   -11137.639    1539.1493   -1227.5397    1954.7888   -13059.233    778.99892    24409.084    29.007958    1.0682449 
  390000    302.78964   -11177.097    1587.6002   -1273.7114    1995.6738   -13059.539   -993.25998    24355.754    28.986817    1.0705839 
  395000     302.2179   -11180.654    1584.6025   -1253.5113    1938.5652   -13060.407   -169.79341    24378.953    28.996017    1.0695651 
  400000    297.58436   -11152.922    1560.3077   -1258.4158    1974.9703   -13057.098   -499.77935    24416.844    29.011032    1.0679054 
  405000    292.79309   -11164.065    1535.1859   -1283.3778    1988.1482   -13062.433   -1313.0973    24327.965    28.975788    1.0718068 
  410000    304.99792   -11104.596    1599.1788   -1200.3309     1929.358   -13055.896    840.85728    24468.444    29.031454    1.0656533 
  415000    306.40057   -11166.671    1606.5332   -1238.5623    2010.1734   -13050.243   -505.46617    24606.377    29.085903    1.0596797 
  420000    294.74215   -11141.709    1545.4052   -1165.1989     1888.658   -13060.684    718.84583     24537.63    29.058791    1.0626486 
  425000    301.46153   -11112.653    1580.6366   -1242.7123    2007.5272   -13059.505    316.15227     24366.63    28.991131    1.0701061 
  430000    308.92553   -11144.454    1619.7722   -1182.8914    1915.4398   -13060.701    2599.2162    24413.011    29.009514     1.068073 
  435000    292.89196   -11150.227    1535.7043   -1212.0769    1941.2435   -13053.152   -1262.4778    24371.676    28.993132    1.0698845 
  440000    294.61047   -11121.357    1544.7148   -1216.6772     1910.801   -13057.742    -55.90697    24382.929    28.997594    1.0693907 
  445000    291.69177   -11124.989    1529.4114   -1242.9427    1993.9773   -13057.036    277.01675    24464.573    29.029923    1.0658219 
  450000    293.10413   -11149.445    1536.8167   -1275.6956    1965.1355   -13057.152   -557.19926    24414.977    29.010292     1.067987 
  455000    295.95547   -11172.246     1551.767   -1262.3927    1948.3623   -13056.083    343.22281    24309.605    28.968497    1.0726163 
  460000    284.98457   -11094.915    1494.2439   -1234.1039    1992.5024   -13059.284    253.63506    24544.368     29.06145    1.0623569 
  465000    301.33869    -11208.88    1579.9926   -1245.8662     1940.111   -13061.329   -1767.7565    24638.021    29.098367    1.0583187 
  470000     289.2674   -11128.109    1516.6998   -1188.7601    1893.5794   -13067.013   -523.11552    24329.624    28.976447    1.0717337 
  475000    303.79869   -11174.673    1592.8909   -1234.9752    1922.4511   -13064.801     1003.665    24380.095     28.99647     1.069515 
  480000     296.3254   -11119.587    1553.7066   -1233.1127    1970.5415   -13059.122   -875.07848    24565.837    29.069921    1.0614284 
  485000    310.69981   -11085.675    1629.0752   -1202.0444    1910.1159   -13052.319   -800.25405    24357.321    28.987438     1.070515 
  490000    312.04357   -11148.265    1636.1208   -1212.8923    1909.6808   -13060.885    1190.2579    24432.919    29.017397    1.0672028 
  495000     306.2109    -11107.24    1605.5387   -1229.3032    1946.8546   -13056.388    105.05203    24383.774    28.997929    1.0693536 
  500000    298.88672   -11177.493    1567.1363   -1262.1859    2008.7847   -13049.267   -550.97832    24406.765     29.00704    1.0683463 
  505000    300.00844   -11179.068    1573.0177   -1202.8344    1931.3123   -13054.684     223.4858    24432.738    29.017325    1.0672107 
  510000    295.05574   -11155.353    1547.0495   -1261.0276    2031.2072   -13054.753   -274.24277    24629.553    29.095032    1.0586826 
  515000    293.56468   -11068.022    1539.2315   -1251.7037     2040.401   -13055.826   -362.60516    24862.884    29.186622    1.0487471 
  520000    304.78906   -11091.759    1598.0837   -1219.5576    1962.9725   -13056.021   -283.37794    24591.212    29.079927    1.0603332 
  525000    296.66971    -11149.22     1555.512   -1174.0636    1905.0569   -13058.951    889.87157    24630.668    29.095471    1.0586346 
  530000    289.65053   -11154.577    1518.7086   -1244.6197    1983.1867    -13055.04    121.36987    24414.915    29.010268    1.0679897 
  535000    295.22533   -11151.942    1547.9387   -1249.2914    1972.0911   -13055.662   -298.55846    24435.738    29.018513    1.0670796 
  540000     310.1837   -11152.776    1626.3691   -1286.0481    1986.4332   -13057.883   -789.46081    24439.768    29.020108    1.0669037 
  545000    298.67203   -11172.342    1566.0106   -1226.6991    1921.9854    -13056.51   -1033.4404    24278.494    28.956134    1.0739908 
  550000    300.32154   -11169.667    1574.6594   -1245.3258    1921.0995   -13061.463   -472.65362    24502.158    29.044782     1.064187 
  555000    301.26713   -11166.955    1579.6174   -1189.3126    1920.8385   -13057.617    1091.0916    24592.481    29.080427    1.0602785 
  560000     289.2275   -11180.932    1516.4906   -1232.3572    1943.7463   -13056.391   -122.75102     24556.04    29.066056    1.0618519 
  565000     311.0858    -11165.87     1631.099   -1233.6253    1961.9993    -13059.43   -752.10419    24530.468    29.055963    1.0629588 
  570000    289.16201   -11173.113    1516.1472   -1227.3527    1930.2613   -13060.159    716.30949    24323.247    28.973915    1.0720147 
  575000    304.17973   -11179.027    1594.8888   -1249.3603    1907.3886   -13056.767   -456.08302    24259.144     28.94844    1.0748474 
  580000    302.43107   -11136.315    1585.7201   -1227.5989    1930.4505   -13057.959     -1374.54    24532.888    29.056919     1.062854 
  585000    292.46688   -11220.581    1533.4755   -1264.0809    1905.4678   -13060.178    115.56626    24353.268    28.985831    1.0706932 
  590000     294.2095    -11183.56    1542.6125   -1196.4704    1880.3709    -13059.46    819.21269    24446.251    29.022674    1.0666208 
  595000    297.55296   -11164.026     1560.143   -1236.3691    1904.8991   -13064.729   -1083.5184    24340.275    28.980675    1.0712647 
  600000    291.39595   -11139.287    1527.8603   -1235.9507    1964.2329   -13060.307   -202.52342    24477.061    29.034861    1.0652781 
  605000    307.60576   -11172.932    1612.8523   -1227.3921    1890.2032   -13055.093    1408.3135    24184.111    28.918563    1.0781822 
  610000    303.89955   -11161.685    1593.4197   -1211.9223    1899.4369   -13054.525    514.73055    24292.868    28.961848    1.0733553 
  615000    300.87903   -11146.515    1577.5824   -1218.7999    1924.1901   -13059.642    556.43125    24428.059    29.015473     1.067415 
  620000    298.42124   -11164.922    1564.6956   -1232.8362    1938.2236   -13061.331    395.10247    24402.981    29.005541     1.068512 
  625000    286.61322   -11186.307    1502.7833   -1248.0393    1944.3432   -13055.821    -700.8741    24333.832    28.978117    1.0715484 
  630000    297.00667   -11199.597    1557.2787   -1216.0426     1904.838   -13056.001      559.802     24401.32    29.004882    1.0685847 
  635000    303.34459   -11173.148      1590.51   -1255.1667    1936.3996   -13058.737    371.60219    24533.267    29.057068    1.0628376 
  640000     292.7341   -11215.181    1534.8766   -1245.7291    1880.8215   -13053.514    819.33848    24344.781    28.982463    1.0710665 
  645000    293.37177   -11152.316      1538.22   -1284.0353    1967.0535   -13052.473   -311.47623    24200.996    28.925292      1.07743 
  650000    300.73628   -11193.305    1576.8339   -1280.6128    1955.7409   -13051.604   -402.90699    24246.295    28.943328     1.075417 
  655000    294.80921   -11201.154    1545.7569   -1304.5465    1962.8515   -13057.507   -193.23865    24088.844    28.880541    1.0824462 
  660000    305.13281    -11128.88     1599.886   -1253.0906    1940.1001    -13057.45   -1541.1096    24445.298    29.022297    1.0666623 
  665000    299.53731   -11160.695    1570.5475   -1273.4032    1913.3643   -13055.155      1741.55    24165.509    28.911147    1.0790122 
  670000    305.01276   -11175.574    1599.2566   -1285.3519    1970.7907   -13061.757   -291.36946    24323.105    28.973859    1.0720209 
  675000    296.59044   -11181.988    1555.0963   -1262.7131    1975.5233   -13058.167   -502.42456    24406.881    29.007086    1.0683412 
  680000    297.68659   -11222.431    1560.8437   -1275.6987    1991.0323   -13060.899   -1131.2188    24586.752    29.078169    1.0605255 
  685000    286.16002   -11164.173    1500.4071    -1301.809    1991.3515   -13059.169   -295.82851    24330.816     28.97692    1.0716812 
  690000    301.88885   -11196.502    1582.8771   -1205.9901    1890.2485   -13056.061    293.61397    24385.926    28.998782    1.0692593 
  695000    298.19071   -11229.671    1563.4869   -1220.1881    1877.2747   -13058.837     935.8096    24153.348    28.906296    1.0795554 
  700000    304.34366   -11157.787    1595.7483   -1232.4412    1902.1848   -13053.156    575.77684    24201.917    28.925659    1.0773889 
  705000    305.44399   -11181.793    1601.5176   -1246.2797    1903.5521   -13058.407   -376.32038    24273.815    28.954274    1.0741978 
  710000    307.92828   -11280.562    1614.5434   -1262.2656    1904.3108   -13063.896    894.20699    24106.216    28.887482    1.0816661 
  715000    304.27167   -11200.772    1595.3709   -1269.3712    1932.9831   -13058.483   -794.86045     24476.75    29.034738    1.0652917 
  720000    296.71933   -11222.115    1555.7721   -1275.7877     1949.286   -13057.246   -714.67114    24109.078    28.888625    1.0815378 
  725000    301.11858   -11220.261    1578.8385    -1261.524    1935.3907   -13061.038   -689.19768    23975.919    28.835341    1.0875445 
  730000    293.03163   -11221.287    1536.4366   -1260.5084    1921.4251   -13058.888   -867.51558    24206.941     28.92766    1.0771653 
  735000    307.78504   -11151.616    1613.7923   -1258.9017    1952.3152   -13050.625    792.83892    24299.671    28.964551    1.0730548 
  740000    297.13168   -11168.587    1557.9341   -1232.5702    1930.0637    -13057.84    152.17291    24470.879    29.032417    1.0655473 
  745000    297.67742   -11146.947    1560.7956   -1237.3249    1932.4267   -13056.402   -333.56976    24344.518    28.982359     1.071078 
  750000    298.70291   -11208.522    1566.1725   -1259.2573    1925.3833   -13059.747    26.104691    24343.346    28.981893    1.0711296 
  755000    293.84724   -11186.648    1540.7131   -1227.4723    1878.9833   -13060.265    -75.48252    24457.033     29.02694    1.0661505 
  760000     301.8359   -11177.485    1582.5996   -1253.3176    1917.5268   -13053.858    1361.6324    24152.861    28.906102    1.0795772 
  765000    296.11029   -11204.069    1552.5788   -1220.8574    1887.4015   -13061.199   -390.83852    24379.789    28.996349    1.0695285 
  770000    297.30935   -11190.676    1558.8657   -1234.9289    1865.3929   -13059.669   -959.68252    24394.969    29.002366    1.0688629 
  775000    297.17922   -11142.955    1558.1834   -1217.9574    1942.0531   -13057.851    -309.9982    24460.609    29.028355    1.0659946 
  780000    292.05871   -11182.015    1531.3353   -1272.6473    1936.9541   -13054.421    1690.6085    24513.215     29.04915     1.063707 
  785000    306.96347   -11143.563    1609.4846   -1279.9269    1949.3446   -13058.341   -1444.3221    24348.204    28.983821    1.0709159 
  790000    303.95276   -11107.969    1593.6988   -1219.4978    1933.9998   -13054.268    251.04585    24365.426    28.990653    1.0701589 
  795000    305.14424    -11144.12     1599.946   -1259.7381    1968.2006    -13057.52   -1890.9588    24471.663    29.032727    1.0655131 
  800000     298.5425   -11251.333    1565.3314   -1295.5394    1940.8838   -13059.738      23.0414    24164.633    28.910797    1.0790513 
  805000    292.58443   -11190.845    1534.0918   -1273.0789     1962.189   -13057.977    510.48186    24189.742    28.920807    1.0779312 
  810000     300.1709   -11132.352    1573.8695   -1158.5157    1902.7777   -13055.888     1042.065    24612.858    29.088457    1.0594007 
  815000    291.02894   -11163.619     1525.936   -1273.2732    1987.3743   -13058.828   -673.86619    24272.183    28.953625      1.07427 
  820000    292.16132   -11202.794    1531.8733   -1266.4806    1926.6199   -13061.612       1458.4    24062.322    28.869938    1.0836393 
  825000    302.37642   -11193.643    1585.4336   -1270.7705    1936.8451   -13057.013   -526.11814    24194.434    28.922677    1.0777222 
  830000    299.37485   -11268.065    1569.6957   -1290.6619    1934.4973    -13061.18    -364.5352    24379.433    28.996208    1.0695441 
  835000    305.25207   -11203.995    1600.5114   -1258.2011    1951.3342   -13064.667   -933.11688    24219.096    28.932501    1.0766248 
  840000    295.88422   -11177.732    1551.3934   -1241.5699    1906.0978   -13061.384    552.66995    24200.557    28.925117    1.0774495 
  845000    298.14959   -11133.066    1563.2713   -1265.1927    1955.0356   -13055.416   -249.91319    24381.643    28.997084    1.0694471 
  850000     302.8746   -11183.636    1588.0457   -1312.9775    1995.9591   -13057.994     471.5938    24155.273    28.907064    1.0794694 
  855000      294.384   -11160.509    1543.5274   -1240.1307    1956.6252   -13057.607   -104.39046    24112.564    28.890017    1.0813814 
  860000    295.87693   -11143.022    1551.3552   -1191.4987     1888.184    -13058.14    1140.6109    24392.268    29.001295    1.0689813 
  865000     288.0146    -11125.52    1510.1311     -1188.51    1947.5688   -13058.131    660.80455    24461.726    29.028796     1.065946 
  870000    298.53476     -11078.7    1565.2909    -1209.508    1944.2183   -13060.974     1666.766    24432.512    29.017236    1.0672205 
  875000    285.34831   -11129.664     1496.151   -1230.3968     1979.657   -13058.209   -825.27851    24618.383    29.090633    1.0591629 
  880000    297.54998   -11175.425    1560.1274   -1269.3321     1975.408   -13058.537     876.0993    24483.222    29.037297    1.0650101 
  885000      297.752   -11152.298    1561.1867   -1208.2279    1918.3772   -13057.537   -801.91692    24547.487    29.062681    1.0622219 
  890000    298.30798   -11084.593    1564.1018   -1245.3469    1994.0223   -13058.148   -452.38523     24535.67    29.058017    1.0627335 
  895000    292.08223   -11136.189    1531.4587    -1204.455    1937.6396   -13057.477    2624.0691    24496.604    29.042587    1.0644283 
  900000     298.6654   -11137.676    1565.9758   -1245.6576    1980.5417   -13053.071     440.1835    24437.378    29.019162     1.067008 
  905000    292.22142   -11126.362    1532.1884   -1169.9214    1903.7648   -13060.819    -657.9596    24546.719    29.062378    1.0622551 
  910000    295.95427   -11180.077    1551.7607   -1238.2147     1940.255   -13056.162    1232.4624     24205.21     28.92697    1.0772424 
  915000    306.47006   -11195.639    1606.8976   -1266.0012    1961.5292   -13061.418    -87.94856    24601.642    29.084038    1.0598836 
  920000    299.40244   -11210.907    1569.8403   -1229.0666    1951.8293    -13057.69    825.65377    24245.644    28.943069    1.0754459 
  925000    283.04652   -11160.764    1484.0822   -1231.0646    1941.9123   -13054.985   -228.33976    24324.179    28.974285    1.0719736 
  930000    294.35585   -11157.805    1543.3798    -1276.837    2008.9967   -13055.427   -378.11978    24489.747    29.039876    1.0647263 
  935000    293.71696    -11175.23      1540.03   -1282.6324    2004.5557    -13056.44   -160.77154    24524.129     29.05346    1.0632336 
  940000    306.71251    -11164.49    1608.1688    -1238.463    1938.4362    -13060.93     978.7367    24264.602     28.95061    1.0746057 
  945000    300.83291   -11124.751    1577.3406   -1277.8485    2017.3007   -13056.461   -1263.0165    24628.881    29.094768    1.0587115 
  950000    299.64696   -11164.157    1571.1224   -1254.1499    1954.5588   -13059.464   -1039.3515    24616.516    29.089898    1.0592432 
  955000    295.52559   -11203.801     1549.513   -1238.4761    1920.0274     -13060.1    671.19457    24281.438    28.957305    1.0738605 
  960000    285.61975   -11157.557    1497.5743   -1218.4093    1931.1026   -13061.147   -1127.8631     24555.08    29.065678    1.0618934 
  965000    299.64821   -11210.431     1571.129    -1283.695    1952.0565   -13055.706    1008.9894     24251.47    28.945387    1.0751875 
  970000    302.10916   -11187.413    1584.0323   -1257.4219    1941.5566   -13056.864    868.28089    24167.289    28.911856    1.0789327 
  975000    305.61694   -11235.717    1602.4245   -1237.0912    1922.1195   -13058.279    606.70247    24062.017    28.869815    1.0836531 
  980000    298.73645   -11140.127    1566.3484   -1226.2874    1955.3184   -13059.115   -1229.9639    24586.497    29.078068    1.0605365 
  985000    289.44693    -11165.71    1517.6411   -1231.6515     1917.683   -13062.162    34.394515    24361.978    28.989286    1.0703104 
  990000    298.54165   -11215.321     1565.327   -1309.6689    1967.6853   -13063.057    -1639.207    24338.298     28.97989    1.0713517 
  995000    304.66806   -11188.798    1597.4492   -1214.7235    1873.6054   -13059.112    112.29283    24230.392    28.936998    1.0761228 
 1000000    301.22566   -11253.006    1579.3999   -1268.7745    1915.2289   -13059.195    213.31456    24177.318    28.915855    1.0784851 
 1005000    295.55141   -11197.455    1549.6484   -1252.2703    1928.8095   -13056.556    106.97843    24204.499    28.926687     1.077274 
 1010000    302.70889    -11268.01    1587.1768   -1274.3054    1937.0404   -13060.435    994.96591    24137.533    28.899986    1.0802627 
 1015000    299.26379   -11183.598    1569.1134   -1249.5406    1919.5048   -13060.514    739.04001    24275.524    28.954953    1.0741222 
 1020000    293.81637   -11173.772    1540.5512   -1257.2846    1955.1207   -13059.736    479.77099    24256.907     28.94755    1.0749465 
 1025000    296.74978   -11185.169    1555.9318   -1276.0895    1944.4185   -13055.586    606.16823    24347.537    28.983557    1.0709452 
 1030000    296.25785   -11244.264    1553.3525   -1266.7049    1947.5894   -13060.622   -195.52217    24437.522    29.019219    1.0670017 
 1035000    299.69909   -11193.015    1571.3957   -1302.6554    1986.7439   -13062.978   -591.16746    24399.198    29.004042    1.0686777 
 1040000    295.82098   -11172.838    1551.0619   -1217.0001    1882.1737   -13058.789    2027.3351    24320.459    28.972808    1.0721376 
 1045000    312.77776   -11168.066    1639.9704   -1245.3227    1935.2904    -13060.96    1388.8731     24395.98    29.002766    1.0688186 
 1050000    293.40835   -11160.312    1538.4118   -1199.7875    1907.8583   -13062.809     299.2177    24409.601    29.008163    1.0682222 
 1055000    296.92916   -11137.404    1556.8723   -1253.4467    1936.4067    -13061.18   -853.66821    24426.805    29.014977    1.0674698 
 1060000    301.49155   -11206.142     1580.794    -1289.327    1987.6608   -13060.698    451.17744    24300.581    28.964912    1.0730146 
 1065000    301.72832     -11235.5    1582.0355    -1249.888    1932.3003   -13058.266    569.02298     24227.63    28.935899    1.0762455 
 1070000    301.39186   -11163.573    1580.2713   -1238.2413    1904.0831    -13060.16    481.77995    24366.133    28.990934    1.0701279 
 1075000    297.18579   -11246.382    1558.2179   -1276.1818    1922.3475   -13060.927    283.24138    24262.338     28.94971    1.0747059 
 1080000    280.24505   -11226.375    1469.3934   -1216.4548    1905.4604   -13060.652    125.50615    24315.427     28.97081    1.0723595 
 1085000    296.12943   -11199.399    1552.6791   -1223.8676    1909.1204   -13061.572   -791.31367    24466.312    29.030611    1.0657462 
 1090000    304.59535   -11178.513     1597.068   -1263.8162    1927.4169   -13060.364    607.80834    24535.854     29.05809    1.0627255 
 1095000    292.31908    -11211.33    1532.7005   -1214.7407    1883.5647     -13058.5    1787.4477    24237.451    28.939808    1.0758094 
 1100000    303.04215   -11150.442    1588.9242   -1253.2345    1965.3917   -13047.725   -171.80866    24436.872    29.018962    1.0670301 
 1105000    294.46055   -11235.486    1543.9288   -1247.6942    1931.2583    -13061.75    402.80179    24278.848    28.956275    1.0739751 
 1110000    303.68639   -11153.236    1592.3021   -1300.5562    2021.4359   -13054.043   -481.57539    24492.059    29.040791    1.0646258 
 1115000    294.21501   -11218.161    1542.6413   -1240.5803    1940.7271   -13062.808    262.14331    24257.681    28.947858    1.0749122 
 1120000    294.37692   -11241.354    1543.4903   -1266.8903    1904.1446   -13059.993    1890.8099      24167.1    28.911781    1.0789411 
 1125000    295.75272   -11196.214    1550.7039   -1215.3821    1899.0676   -13062.244    405.48437    24313.216    28.969932     1.072457 
 1130000    298.04583   -11130.672    1562.7273   -1268.7842     1969.676   -13055.302   -2275.0814    24453.201    29.025424    1.0663176 
 1135000    304.37892   -11155.443    1595.9332   -1247.1854    1959.3515   -13053.538    97.271648     24494.67    29.041822    1.0645123 
 1140000    308.02764   -11147.273    1615.0644   -1265.0696    1968.0668   -13057.307    640.57203    24335.199     28.97866    1.0714882 
 1145000    307.35926   -11163.031    1611.5599   -1286.7634    1979.4819   -13062.354   -1.2990848    24483.274    29.037318    1.0650078 
 1150000     302.3734   -11140.728    1585.4178   -1233.9105    1959.0029   -13057.741    -512.6447    24410.308    29.008443    1.0681913 
 1155000    303.12922   -11166.836    1589.3807   -1272.6507    1962.7458   -13056.222   -709.54689     24294.87    28.962643    1.0732668 
 1160000    301.28762   -11194.639    1579.7247   -1220.4555    1876.3451   -13061.444    3123.4749    24007.887    28.848151    1.0860963 
 1165000    300.82004   -11170.356    1577.2731   -1274.4256    1974.0536   -13058.371    -1484.363    24488.165    29.039251    1.0647951 
 1170000    302.02556   -11158.503     1583.594   -1234.5771    1939.8869   -13060.493   -1129.1123    24642.459    29.100113    1.0581281 
 1175000    295.56013   -11195.511    1549.6941   -1220.9318    1886.7533   -13057.833    269.06009    24385.989    28.998807    1.0692565 
 1180000     299.2542    -11114.54     1569.063   -1244.6952    1979.2536   -13058.324   -71.540415     24777.32    29.153102    1.0523688 
 1185000    298.15775   -11209.137    1563.3141   -1264.2553    1958.5497   -13060.314    -773.4057      24404.3    29.006063    1.0684543 
 1190000    291.08094   -11182.201    1526.2086   -1235.3911     1897.341   -13058.957   -173.39066     24490.67    29.040241    1.0646862 
 1195000    307.54852   -11184.924    1612.5522   -1255.8017    1943.7782   -13058.852    337.41833    24189.056    28.920534    1.0779618 
 1200000     302.3617   -11204.885    1585.3564   -1226.0265     1922.581   -13056.677    21.434495    24215.775    28.931179    1.0767724 
 1205000    298.52988   -11141.374    1565.2652   -1278.2901    1974.3936   -13056.768   -1152.9786    24384.563    28.998241    1.0693191 
 1210000    299.07283   -11162.405    1568.1121    -1269.571    1967.1433   -13052.603   -296.04804    24479.363    29.035772    1.0651779 
 1215000    305.52554   -11110.363    1601.9452   -1236.3298     2012.485   -13058.849   -454.42285    24732.744    29.135609    1.0542655 
 1220000     293.4682   -11061.236    1538.7256   -1212.5149    1963.6317   -13053.966    323.41101    24529.081    29.055415     1.063019 
 1225000    299.53498   -11231.614    1570.5352    -1236.473     1879.379   -13061.147   -279.84066      24388.5    28.999802    1.0691465 
 1230000    297.32518   -11226.894    1558.9487   -1313.7343    1992.1777   -13058.684   -771.46375    24341.955    28.981341    1.0711908 
 1235000    302.47888   -11122.192    1585.9708    -1256.162     1983.777   -13055.658   -299.74529    24398.754    29.003866    1.0686971 
 1240000    299.36579   -11185.869    1569.6482   -1285.5117     1980.727    -13046.13   -384.13118    24535.117    29.057799    1.0627574 
 1245000    302.01505   -11165.775    1583.5389   -1282.0259    1991.5344    -13051.28   -278.12802    24483.008    29.037213    1.0650194 
 1250000    293.47563   -11268.497    1538.7646   -1335.7334    2014.6761   -13057.196   -1070.5538     24341.46    28.981145    1.0712126 
 1255000    296.95161   -11162.359      1556.99   -1258.1379    1999.1452   -13058.275   -69.726489    24373.291    28.993772    1.0698136 
 1260000    295.47703   -11154.193    1549.2584   -1232.0551    1987.8533   -13060.676   -1306.5855    24601.132    29.083837    1.0599056 
 1265000    299.76237   -11171.711    1571.7275   -1260.8198    1983.6901   -13056.814    351.86715    24314.995    28.970638    1.0723785 
 1270000      310.406   -11206.503    1627.5347   -1275.3269    1955.6024   -13061.338   -1264.3633    24412.038    29.009128    1.0681156 
 1275000    297.22638   -11200.914    1558.4307    -1216.216    1916.7354   -13057.762   -89.717217    24122.576    28.894015    1.0809326 
 1280000     302.2752   -11218.951    1584.9029   -1295.8144    1954.8415   -13062.364    813.13207    24151.339    28.905494    1.0796453 
 1285000    301.94145   -11134.578     1583.153   -1248.7559    1972.3226   -13059.271   -298.75167    24427.218     29.01514    1.0674518 
 1290000    300.60544   -11185.671    1576.1479    -1219.427    1912.9392   -13063.515   -814.76739    24510.925    29.048245    1.0638064 
 1295000    292.36868   -11211.145    1532.9606   -1251.8602    1948.7708   -13058.593    727.10849    24324.647    28.974471     1.071953 
 1300000    295.02388   -11182.903    1546.8825    -1313.009    1998.0265   -13058.923   -2086.3518    24479.978    29.036015    1.0651512 
 1305000    288.17005   -11212.713    1510.9461   -1273.4639    1910.5022   -13059.708     82.68187     24270.97    28.953143    1.0743237 
 1310000    297.12804   -11213.889    1557.9151   -1317.9109    1966.0084   -13062.008   -1595.0229    24368.518     28.99188    1.0700231 
 1315000    310.73779   -11189.493    1629.2743   -1246.1751    1914.2987   -13060.607   -598.96095    24017.832    28.852134    1.0856466 
 1320000    304.29959     -11225.8    1595.5173   -1215.9657    1870.3786   -13062.459    1198.0342    23952.728    28.826041    1.0885974 
 1325000    289.55868   -11241.814    1518.2271   -1262.4515    1899.7081   -13062.736   -1260.1902    24037.458     28.85999    1.0847602 
 1330000    301.01068   -11199.711    1578.2727   -1260.3374     1897.993   -13060.943    943.84014    24105.471    28.887184    1.0816996 
 1335000    303.83835   -11229.914    1593.0989   -1295.4802    1945.6641   -13065.997   -560.44011    24310.221    28.968742    1.0725891 
 1340000    297.59631   -11254.405    1560.3703   -1232.7751    1866.0231   -13060.576     1589.825    24087.149    28.879863    1.0825224 
 1345000    291.41868   -11176.873    1527.9795   -1263.3233    1937.8633   -13059.661    778.03206    24161.937    28.909722    1.0791717 
 1350000    305.95076   -11214.739    1604.1748   -1270.3363    1940.0453   -13057.478   -161.35047    24155.608    28.907198    1.0794544 
 1355000    292.54703   -11174.884    1533.8957   -1247.8053    1927.9604   -13059.228    1249.6577    24148.779    28.904473    1.0797597 
 1360000    296.61923   -11271.929    1555.2473   -1295.5758    1915.3791   -13059.758    1258.1434    24234.911    28.938797    1.0759222 
 1365000    299.70045    -11151.04    1571.4029    -1233.611    1904.1555   -13064.182   -153.27484    24397.533    29.003382    1.0687506 
 1370000    299.24139   -11240.452    1568.9959   -1241.0044    1856.6582   -13061.997    179.99779    24017.655    28.852063    1.0856546 
 1375000    288.96583   -11197.801    1515.1186   -1226.3379    1902.2499   -13059.187   -909.43295    24528.609    29.055229    1.0630394 
 1380000    299.20219   -11214.429    1568.7904   -1254.7005    1923.1118   -13062.216    365.67036    24401.425    29.004924    1.0685801 
 1385000    285.49779   -11135.632    1496.9348   -1234.4116    1958.6642   -13053.599   -1305.6925    24783.753    29.155625    1.0520956 
 1390000    292.91131   -11080.596    1535.8057   -1197.5309    1958.8159   -13055.633   -222.38206    24617.842     29.09042    1.0591862 
 1395000    293.74977   -11182.476     1540.202   -1228.3405     1924.615   -13057.122    -755.0431    24463.802    29.029618    1.0658555 
 1400000    299.06788   -11206.429    1568.0861   -1257.2058    1969.5668   -13059.742     456.1915    24555.288     29.06576    1.0618844 
 1405000    297.77652   -11070.223    1561.3152   -1172.5976    1930.0259    -13054.32   -1136.3992    24762.134    29.147145    1.0530142 
 1410000    289.19204   -11194.049    1516.3047   -1198.7844    1897.0486   -13058.974    1356.4801    24480.208    29.036106    1.0651412 
 1415000    299.62012   -11184.659    1570.9817   -1253.8752    1958.9218   -13054.196    223.45772    24631.906    29.095959    1.0585814 
 1420000    302.93797   -11165.915    1588.3779   -1229.0966    1954.6894   -13056.413   -2037.0085     24696.61    29.121413     1.055808 
 1425000    302.78522   -11164.096    1587.5771   -1230.7831    1928.1471   -13058.289    1489.6532    24473.051    29.033276    1.0654527 
 1430000    290.24945   -11190.404    1521.8489   -1264.7959    1928.7117   -13058.533     883.3367    24178.559     28.91635    1.0784298 
 1435000     291.1594   -11241.336      1526.62   -1219.4016    1892.9671   -13057.493    1518.2354    24546.539    29.062307    1.0622629 
 1440000    288.21805   -11174.808    1511.1978   -1263.1382    1980.6748   -13060.739    -321.4489    24635.422    29.097343    1.0584304 
 1445000    303.59626   -11191.332    1591.8296   -1226.6707    1890.1449   -13053.327   -924.57053    24478.486    29.035425    1.0652161 
 1450000    293.18377   -11221.454    1537.2343    -1256.927      1900.52    -13062.82    1095.4795    24182.648     28.91798    1.0782474 
 1455000    299.00202    -11199.19    1567.7408   -1229.0464    1919.0193   -13059.157   -1600.7229    24519.436    29.051607    1.0634371 
 1460000    290.09235   -11235.414    1521.0252   -1245.0116    1891.9864   -13060.252    535.15752    24307.877    28.967811    1.0726925 
 1465000    296.91275   -11251.598    1556.7862   -1256.3253    1877.8906   -13057.854    443.25569    24146.438    28.903539    1.0798644 
 1470000    293.34011   -11272.334     1538.054   -1268.3304    1887.9379   -13062.421   -176.14113    24114.396    28.890748    1.0812993 
 1475000     293.1247   -11203.694    1536.9246     -1179.99    1851.5284   -13064.772   -1.0575129    24090.983    28.881396    1.0823501 
 1480000    295.74666   -11243.693    1550.6722   -1282.2222    1950.3084   -13064.158   -509.25785    24409.232    29.008017    1.0682384 
 1485000    299.68869   -11212.218    1571.3412   -1234.9099    1859.2031   -13056.804    1762.1545    24307.243    28.967559    1.0727205 
 1490000    303.28193   -11218.767    1590.1814   -1293.6059    1965.7152   -13059.898   -929.56907     24192.47    28.921894    1.0778097 
 1495000    309.01006   -11188.002    1620.2154   -1226.3634    1898.8076   -13060.165   -568.63415    24328.042    28.975819    1.0718034 
 1500000    308.50059   -11247.858    1617.5441   -1236.0094    1922.4524   -13062.571   -2322.8303    24694.685    29.120657    1.0558903 
 1505000    299.04499   -11210.149    1567.9661   -1275.6325    1934.0181   -13061.066   -1148.4558     24145.47    28.903153    1.0799077 
 1510000    297.94282   -11194.801    1562.1872    -1267.029    1941.3239   -13062.544    -322.4746    24426.945    29.015032    1.0674637 
 1515000    300.76639   -11181.614    1576.9918   -1227.6371    1893.4533   -13062.271    676.57835    24195.863    28.923246    1.0776585 
 1520000     304.4121   -11167.878    1596.1072   -1218.7464    1903.5124   -13060.776   -946.18581    24328.688    28.976075    1.0717749 
 1525000    298.76433   -11185.069    1566.4945   -1300.1834    1968.4537   -13058.756    -1147.458    24461.733    29.028799    1.0659457 
 1530000    305.11526   -11236.628     1599.794    -1198.801    1846.5231   -13060.492     131.8173    24265.441    28.950944    1.0745685 
 1535000    300.42165    -11124.88    1575.1843   -1242.6734    1945.5266   -13059.363    -173.3802    24674.571    29.112748     1.056751 
 1540000    298.33439   -11171.176    1564.2403   -1275.6271    1969.3962   -13055.462    1598.2071    24246.511    28.943413    1.0754074 
 1545000    296.70433   -11127.714    1555.6934   -1276.4729    1973.9129   -13062.466   -1399.1889    24482.906    29.037172    1.0650238 
 1550000    294.33786   -11133.035    1543.2855   -1238.9825    1992.2745   -13059.108    247.40559    24641.448    29.099715    1.0581715 
 1555000    301.11123   -11223.032    1578.7999    -1217.465    1895.6775   -13058.804     399.9337    24425.532    29.014472    1.0675255 
 1560000    302.60759    -11202.34    1586.6457   -1219.6029    1918.5857   -13054.489   -778.46011    24244.233    28.942507    1.0755085 
 1565000    299.14593   -11209.502    1568.4954   -1207.0419    1879.8091   -13061.555   -258.91949    24640.942    29.099516    1.0581933 
 1570000    304.12006   -11258.743    1594.5759    -1231.377    1870.7577    -13062.77   -408.73602    24348.443    28.983916    1.0709054 
 1575000     295.5591   -11192.168    1549.6888   -1212.2957    1902.0218   -13059.152    1684.5384    24215.945    28.931246    1.0767648 
 1580000     295.7053   -11185.161    1550.4553   -1210.1591    1910.4286   -13061.998   -279.65593    24339.578    28.980398    1.0712954 
 1585000    300.07848   -11198.481     1573.385   -1261.7035    1962.4751   -13058.084   -1416.2172    24354.024    28.986131    1.0706599 
 1590000    293.77235   -11170.443    1540.3204   -1270.0452    1998.4438   -13057.931   -441.47682    24529.147    29.055442    1.0630161 
 1595000    301.63099   -11149.048    1581.5251   -1233.9202    1954.0579   -13057.746    1128.5903    24371.667    28.993128    1.0698849 
 1600000     302.2893    -11122.33    1584.9768   -1117.1507    1835.2434    -13061.46    924.82941    24792.097    29.158897    1.0517415 
 1605000    295.22395   -11182.469    1547.9315   -1256.1332    1938.5709   -13057.063   -682.30229    24476.823    29.034767    1.0652885 
 1610000    297.98358   -11155.713    1562.4009   -1222.1521    1944.1377   -13051.789   -1201.2395     24396.34    29.002909    1.0688029 
 1615000    312.43295   -11158.818    1638.1624   -1220.4396    1932.5946   -13058.703    392.36599     24621.08    29.091695    1.0590469 
 1620000    306.67719   -11187.894    1607.9836   -1193.4828    1908.2008   -13057.092    124.79108    24561.945    29.068386    1.0615966 
 1625000     303.7193   -11125.002    1592.4746   -1241.8372    1962.2415   -13055.459   -975.70609    24632.953    29.096371    1.0585364 
 1630000    299.17069   -11161.766    1568.6252   -1226.1822    1935.4362   -13057.437   -67.955889    24574.206    29.073222    1.0610669 
 1635000    295.51705   -11163.381    1549.4683   -1201.3825    1901.1401   -13056.773    499.67682    24418.388    29.011643    1.0678378 
 1640000    305.70518   -11189.349    1602.8871   -1269.5292    1966.7695   -13051.258    183.26478    24550.042     29.06369    1.0621113 
 1645000    292.80976   -11215.178    1535.2732   -1255.6638    1930.0033    -13055.05   -982.38677    24210.752    28.929178    1.0769958 
 1650000    305.47175   -11175.045    1601.6632   -1214.8188     1907.864    -13061.72   -254.78269     24594.06     29.08105    1.0602104 
 1655000    303.76276   -11141.828    1592.7025   -1243.4896    1931.8959   -13059.818     819.7864    24288.781    28.960224    1.0735359 
 1660000    291.55924   -11157.118    1528.7165   -1230.4915    1944.2233    -13056.93   -760.20218    24738.376    29.137821    1.0540254 
 1665000    297.76326   -11198.214    1561.2457   -1217.0886    1894.7205     -13056.1    542.28693    24231.327     28.93737    1.0760813 
 1670000    288.10653   -11140.115    1510.6131   -1193.0537    1933.7177   -13055.279   -445.98678    24519.842    29.051767    1.0634195 
 1675000    300.41506   -11174.514    1575.1497    -1203.957    1882.2752   -13052.463   -719.97733    24522.082    29.052652    1.0633224 
 1680000    308.04074   -11220.886     1615.133   -1260.6639    1926.5846   -13057.186   -1254.2437     24624.03    29.092857      1.05892 
 1685000    295.17815   -11240.063    1547.6913   -1249.7354    1908.3054   -13061.782      706.025    24287.701    28.959794    1.0735836 
 1690000    290.63584   -11204.447    1523.8749   -1188.1056    1861.5766   -13057.803    583.11026    24580.734    29.075796    1.0607852 
 1695000    308.44532   -11222.089    1617.2543   -1203.5031    1840.0641   -13061.041   -849.18337    24314.238    28.970338    1.0724119 
 1700000    291.74595   -11180.265    1529.6954   -1269.8084    1933.5259   -13062.047    229.14976    24513.905    29.049422     1.063677 
 1705000    293.06595   -11160.942    1536.6166   -1232.0417    1951.6599   -13057.101   -941.57314    24588.279    29.078771    1.0604597 
 1710000    289.08852    -11178.15    1515.7619   -1276.1993    1920.1036   -13054.987    1168.6871    24061.638    28.869664    1.0836701 
 1715000    289.77767   -11206.497    1519.3753   -1251.4667    1896.4887   -13061.361    1036.8108    23991.332    28.841518    1.0868458 
 1720000    303.05937   -11194.094    1589.0145   -1294.4205    1922.0233   -13061.522     407.3402    24349.562     28.98436    1.0708561 
 1725000    297.02035   -11227.807    1557.3504   -1231.9876    1867.9112   -13060.767    20.206456     24229.04     28.93646    1.0761829 
 1730000    287.06458    -11207.76    1505.1499   -1218.7529    1846.3314   -13062.396   -402.07406    24213.691    28.930349    1.0768651 
 1735000    290.86755   -11134.504    1525.0898   -1279.0121    1930.7072   -13058.473    42.830346    24442.215    29.021076    1.0667969 
 1740000    295.89877   -11168.434    1551.4697   -1235.7829    1890.7995   -13057.539    561.90542    24303.438    28.966047    1.0728885 
 1745000    294.77034   -11192.358    1545.5531   -1258.2645    1906.4318   -13059.812   -1054.0831    24573.449    29.072923    1.0610997 
 1750000    297.49504   -11255.667    1559.8393    -1235.879    1853.8481   -13060.391    1264.5706    24223.667    28.934321    1.0764216 
 1755000    313.01899   -11218.514    1641.2352   -1208.8314    1880.5174   -13063.308    1338.5174    24332.703    28.977669    1.0715981 
 1760000    295.15762   -11178.668    1547.5837   -1230.6494    1936.1646   -13057.673    423.90643    24524.357     29.05355    1.0632237 
 1765000    299.01793   -11217.956    1567.8242   -1186.4847    1857.2315   -13056.734    1693.9275     24491.14    29.040427    1.0646658 
 1770000    301.69212   -11249.532    1581.8457   -1195.7087      1853.97   -13057.138    619.94617    24345.978    28.982938    1.0710138 
 1775000    299.03247   -11217.138    1567.9005    -1252.207    1897.1899   -13055.784    781.43986    24301.542    28.965294    1.0729722 
 1780000    285.92287   -11192.521    1499.1636   -1223.9037    1934.4931   -13060.979   -491.27597    24348.749    28.984038    1.0708919 
 1785000    304.59515    -11236.57     1597.067   -1238.7644    1914.9199   -13058.604    1012.4388    24270.611       28.953    1.0743396 
 1790000    307.32204   -11190.561    1611.3647   -1202.4608    1892.5463   -13062.552    1404.2177    24704.802    29.124633    1.0554579 
 1795000    297.45401   -11214.086    1559.6242   -1182.3309    1846.2367   -13060.259    335.29967    24355.369    28.986664    1.0706008 
 1800000    305.39122   -11202.278     1601.241   -1263.8757    1922.9045    -13054.74    0.3257018     24291.13    28.961157    1.0734321 
 1805000    292.58089   -11197.145    1534.0732   -1217.6778    1896.1785    -13063.25    1645.4191    24530.885    29.056128    1.0629408 
 1810000    292.22006   -11198.634    1532.1814   -1248.7603    1917.2067   -13061.837   -406.52521    24249.319    28.944531    1.0752829 
 1815000    291.87275   -11155.369    1530.3603   -1244.2483     1912.163   -13053.819    214.43601    24489.134    29.039634     1.064753 
 1820000    302.02395   -11228.939    1583.5855   -1204.8341    1820.7595   -13061.964    1191.6326     24084.58    28.878837    1.0826378 
 1825000    292.67043   -11244.712    1534.5427   -1241.7353    1863.1179   -13057.701   -34.137007    24311.504    28.969252    1.0725325 
 1830000    294.77041    -11205.71    1545.5534   -1262.4617    1937.7427    -13058.84   -393.29468     24504.21    29.045592    1.0640979 
 1835000    299.30611   -11157.369    1569.3353   -1176.8842    1884.8927   -13060.735    1071.1476    24498.554    29.043357    1.0643436 
 1840000     304.3937   -11137.741    1596.0107   -1280.9874    1976.0139   -13057.319   -1089.8761    24526.627    29.054447    1.0631253 
 1845000    300.51831   -11204.684    1575.6911    -1254.309    1897.1114   -13061.669   -1089.9701    24397.144    29.003228    1.0687676 
 1850000    305.28875   -11170.398    1600.7037   -1244.5642    1919.1016   -13057.635    -328.9216    24435.662    29.018483    1.0670829 
 1855000    294.80021   -11216.029    1545.7097   -1251.4917    1922.2129   -13056.785   -301.92993    24592.521    29.080443    1.0602768 
 1860000    302.14671   -11212.677    1584.2292   -1234.1332    1914.8769   -13059.696    249.27147    24539.207    29.059413    1.0625803 
 1865000    301.56829   -11201.638    1581.1964   -1247.4508    1911.9077   -13057.481   -64.403052    24359.689    28.988378     1.070411 
 1870000     288.7802   -11161.954    1514.1453   -1233.9148    1929.2354   -13062.588   -286.03354    24429.316    29.015971    1.0673601 
 1875000    294.70329   -11188.015    1545.2015   -1273.7075      1930.27   -13061.594    111.45825    24100.775    28.885308    1.0819104 
 1880000    303.51719   -11235.266     1591.415   -1316.6185    1953.3615   -13054.759   -1727.1401     24170.39    28.913093    1.0787943 
 1885000    299.46043   -11196.128    1570.1444   -1263.4174    1951.9204   -13058.936    446.79609    24460.043    29.028131    1.0660193 
 1890000    290.14027   -11173.855    1521.2765   -1284.7261    1954.5335   -13054.978   -94.671747    24318.095    28.971869    1.0722418 
 1895000    299.35333     -11244.2    1569.5828   -1232.9195     1890.349   -13057.582    -1671.135    24254.895    28.946749    1.0750357 
 1900000    303.18219   -11180.273    1589.6584    -1294.066    1971.3963    -13052.98   -757.40215     24390.43    29.000567    1.0690618 
 1905000    287.51309    -11133.04    1507.5015   -1230.3266    1936.5363   -13059.366    708.34644    24382.231    28.997317    1.0694214 
 1910000    302.44159    -11163.84    1585.7753   -1249.7249    1938.1068   -13058.244   -336.21237    24245.154    28.942873    1.0754676 
 1915000    293.99768   -11159.636    1541.5018   -1259.9559    1929.7347    -13059.12   -635.19069    24413.704    29.009788    1.0680427 
 1920000    280.05029   -11205.603    1468.3723   -1251.9303    1893.7395   -13058.947    159.42156    24239.829    28.940755    1.0757039 
 1925000    308.54926   -11186.641    1617.7993   -1278.9418    1910.1809   -13059.081    850.77218    24307.307    28.967585    1.0727177 
 1930000    305.57064   -11241.697    1602.1817   -1278.0833    1963.6455   -13060.563   -975.48485    24479.851    29.035964    1.0651568 
 1935000    308.87925   -11105.049    1619.5296    -1249.164    1963.7131   -13060.437    1266.8203    24334.742    28.978479    1.0715083 
 1940000    304.38776   -11215.461    1595.9796   -1269.8538    1938.7567   -13054.579   -1126.0939    24322.549    28.973638    1.0720454 
 1945000    303.90971    -11233.37     1593.473   -1273.7182    1905.6501   -13058.418    980.76582    24133.742    28.898473    1.0804325 
 1950000    296.64253   -11179.934    1555.3694    -1263.678    1919.1804   -13058.844    1000.7078    24218.668    28.932331    1.0766438 
 1955000    298.07434   -11220.934    1562.8768   -1217.9755    1862.8385   -13057.829    369.01586    24208.163    28.928147     1.077111 
 1960000    301.09899   -11208.183    1578.7357   -1232.8892    1905.6681   -13060.239   -1072.9149     24103.32    28.886325    1.0817961 
 1965000    286.51388   -11197.459    1502.2624   -1289.2256    1912.7683   -13057.576   -1572.6152    24042.236    28.861902    1.0845446 
 1970000    297.15334   -11262.843    1558.0477   -1252.6162    1870.9349   -13058.923    863.89672     24109.91    28.888957    1.0815004 
 1975000    301.52383   -11259.237    1580.9633   -1282.6838    1887.9564   -13058.019    1508.9354    24112.321     28.88992    1.0813923 
 1980000    297.71799   -11226.017    1561.0083   -1265.8114    1876.0288   -13056.509    33.639612    24274.849    28.954685     1.074152 
 1985000    296.53241   -11129.151     1554.792    -1296.821     1968.374   -13056.967   -1016.8106    24393.434    29.001757    1.0689302 
 1990000    293.80549   -11271.527    1540.4942   -1257.1775      1872.58    -13061.86   -16.647375    24261.813    28.949501    1.0747292 
 1995000    308.89382   -11210.222     1619.606    -1295.448    1943.0043   -13054.532   -482.23197    24562.868     29.06875    1.0615567 
 2000000    300.93419   -11201.988    1577.8716   -1270.2046    1887.3894   -13060.389   -229.80781    24345.286    28.982663    1.0710442 
 2005000    294.29253   -11174.756    1543.0478   -1278.9319    1964.3216   -13057.443    278.07783    24279.948    28.956712    1.0739264 
 2010000    299.63631    -11193.37    1571.0665    -1244.927    1905.1388   -13057.768   -694.95128    24412.338    29.009247    1.0681025 
 2015000    293.90573    -11174.55    1541.0197   -1315.2929    1962.0357   -13053.953    677.15373    24016.837    28.851735    1.0856916 
 2020000    299.65043    -11244.12    1571.1406   -1247.5234    1861.7407   -13062.382    601.80445    24155.739     28.90725    1.0794486 
 2025000    297.50736   -11307.436    1559.9039   -1273.5025    1918.3731   -13058.438    297.76745     24293.38    28.962051    1.0733327 
 2030000    287.91178   -11167.126     1509.592   -1290.2396    1951.9392   -13057.138    69.371745    24376.129    28.994898     1.069689 
 2035000    296.83586   -11199.218    1556.3831   -1292.3946    1957.5416   -13054.674   -479.18626    24517.664    29.050907     1.063514 
 2040000    293.66905   -11151.722    1539.7788   -1217.2508    1907.8517   -13057.213    -150.6188    24378.349    28.995778    1.0695916 
 2045000    289.23079   -11170.048    1516.5079   -1209.6848    1880.9816   -13061.357   -26.843789     24363.04    28.989707    1.0702637 
 2050000    301.68792    -11153.49    1581.8236   -1276.1661    1917.3251   -13057.739    121.33693    24333.276    28.977897    1.0715729 
 2055000    296.90941   -11251.157    1556.7687   -1278.8355    1913.9931   -13062.989   -1794.4851     24369.83      28.9924    1.0699655 
 2060000    300.58476    -11264.28    1576.0395   -1263.6567    1895.6439   -13058.989     76.14819    24130.907    28.897341    1.0805594 
 2065000    301.13705   -11204.547    1578.9353   -1255.9605    1929.9114   -13054.371   -553.78402    24569.187    29.071243    1.0612837 
 2070000    302.33238   -11222.569    1585.2027   -1243.2572    1872.9167    -13051.77   -33.609626    24326.784    28.975319    1.0718588 
 2075000    304.52353   -11185.703    1596.6915   -1295.1885    1959.5344   -13059.662    -261.6684    24693.567    29.120217    1.0559381 
 2080000    303.48548    -11178.46    1591.2487   -1274.1875    1979.1419   -13056.911   -495.12267    24497.049    29.042762     1.064409 
 2085000    302.26583     -11245.3    1584.8537   -1312.3216    1921.6989   -13056.482   -601.50659    24331.584    28.977225    1.0716474 
 2090000    297.34705   -11213.122    1559.0634   -1251.9914    1892.9252   -13059.734     224.0416    24277.108    28.955583    1.0740521 
 2095000    293.98943   -11155.093    1541.4586    -1256.745    1941.5489    -13057.84   -263.53403     24348.44    28.983915    1.0709055 
 2100000    299.18613   -11232.513    1568.7061   -1278.4276    1896.9915    -13055.92    406.34498    24227.744    28.935944    1.0762405 
 2105000    297.43864   -11210.927    1559.5436   -1230.6841    1889.5378   -13062.897     362.6587    24304.798    28.966588    1.0728284 
 2110000    300.79407   -11206.513     1577.137   -1266.1798    1909.3017   -13058.518    -749.3897    24539.699    29.059608     1.062559 
 2115000    300.37335   -11186.409     1574.931   -1284.7484    1932.6296   -13059.793    -389.8413    24309.107      28.9683    1.0726382 
 2120000     303.9032   -11211.637    1593.4389   -1231.8332    1913.9698   -13058.674    -246.0116    24521.453    29.052403    1.0633497 
 2125000    304.21853   -11146.141    1595.0922   -1287.7823    1947.5898   -13053.655   -254.56068    24502.917    29.045081     1.064154 
 2130000    299.82294    -11119.76    1572.0451   -1250.3044    1955.8418   -13059.364   -297.42231    24538.703    29.059215    1.0626021 
 2135000    296.54297   -11183.351    1554.8474   -1263.2929     1896.487   -13064.893   -295.52971    24325.255    28.974712    1.0719262 
 2140000     285.7448   -11264.635    1498.2299   -1247.3704    1869.9898   -13059.989   -501.02611    24113.764    28.890496    1.0813276 
 2145000    282.30382   -11167.091    1480.1881   -1203.4102    1918.8392   -13059.715   -520.04397    24550.059    29.063696    1.0621106 
 2150000    298.17323   -11280.205    1563.3953   -1205.3341    1842.6775   -13057.004    1786.1219    24120.812    28.893311    1.0810116 
 2155000    295.01438   -11196.582    1546.8326   -1199.9082    1914.2504    -13062.27   -1254.3245    24727.389    29.133506    1.0544938 
 2160000    293.58206   -11261.204    1539.3226   -1289.6424     1951.562   -13056.928    99.867633    24413.664    29.009773    1.0680444 
 2165000    303.78191   -11208.893    1592.8029   -1240.9653    1907.1015   -13055.345    1254.4142    24312.929    28.969817    1.0724696 
 2170000     300.7233   -11159.874    1576.7659   -1194.6201    1916.2618   -13058.477   -245.13415    24558.597    29.067065    1.0617414 
 2175000    293.23828   -11154.916    1537.5201   -1212.9266    1939.3532   -13058.232    1101.0727    24627.724    29.094312    1.0587612 
 2180000    301.40345   -11219.529    1580.3321   -1238.3158    1927.9441   -13058.572    827.20595    24450.578    29.024386     1.066432 
 2185000    297.83754    -11176.42    1561.6352   -1201.8907    1898.2908   -13061.454    937.25638     24554.18    29.065322    1.0619323 
 2190000    296.73687   -11197.576    1555.8641   -1227.9647    1891.3723   -13064.892   -123.34114    24282.759     28.95783    1.0738021 
 2195000    290.41914   -11201.183    1522.7387   -1268.4998    1946.7811   -13055.495   -536.95666    24243.001    28.942017    1.0755631 
 2200000    299.68317    -11155.11    1571.3122   -1252.0428    1939.6115    -13054.67    -196.2084     24297.14    28.963545    1.0731666 
 2205000    301.83676    -11166.89     1582.604   -1286.7357    1937.4412   -13059.525   -921.68993    24345.028    28.982561    1.0710556 
 2210000    292.59877   -11163.193     1534.167   -1261.4532    1959.2674   -13060.598    247.90736    24407.186    29.007206    1.0683279 
 2215000    291.94254   -11205.403    1530.7262   -1258.2035    1938.8856   -13055.612   -1235.3824    24327.987    28.975797    1.0718058 
 2220000    303.21333    -11179.86    1589.8217   -1252.2852    1963.1591   -13060.624   -281.81696     24486.67     29.03866    1.0648601 
 2225000    307.80713   -11185.712    1613.9082   -1208.4071    1904.6651   -13062.121   -768.17872    24483.085    29.037243     1.065016 
 2230000    304.32305   -11164.944    1595.6403   -1242.0623    1923.2646   -13060.295    235.43881    24291.337    28.961239    1.0734229 
 2235000    293.85747   -11212.639    1540.7667   -1264.4478    1952.3587   -13061.904   -564.22579    24567.383    29.070531    1.0613617 
 2240000     292.7424   -11135.871    1534.9201   -1244.8308    1941.4125   -13053.151    789.57499    24433.324    29.017557     1.067185 
 2245000    296.99842   -11208.779    1557.2354   -1238.1529    1881.2202   -13055.325   -1783.6223    24414.153    29.009966     1.068023 
 2250000    299.47584   -11170.096    1570.2252   -1275.6342    1951.2122   -13056.867   -1400.2165    24609.099    29.086976    1.0595625 
 2255000    293.31314   -11143.124    1537.9126   -1260.0288    1975.9721   -13053.102     759.9072    24594.035     29.08104    1.0602115 
 2260000    305.92631   -11193.256    1604.0466   -1233.9393    1910.4826   -13061.942   -698.26139    24614.926    29.089271    1.0593117 
 2265000    297.45572   -11226.062    1559.6332   -1233.3568    1881.1556   -13054.069    555.80267    24306.608    28.967307    1.0727485 
 2270000    297.10615   -11219.233    1557.8003   -1289.3186    1942.8831   -13060.998    601.30768     24402.65    29.005409    1.0685265 
 2275000     294.4476   -11226.251    1543.8609   -1269.9784    1912.3677   -13054.537    353.78871    24399.987    29.004354    1.0686431 
 2280000    305.10926   -11171.216    1599.7625   -1194.0715    1886.2812    -13060.01   -361.32817    24436.196    29.018694    1.0670596 
 2285000    291.17342   -11199.833    1526.6936   -1214.3242      1888.31   -13061.507    225.29616    24453.787    29.025656     1.066292 
 2290000    304.22613   -11219.291    1595.1321   -1268.7222    1929.1527   -13054.388    785.98995    24498.359     29.04328     1.064352 
 2295000    300.21644   -11236.006    1574.1083   -1260.7187    1887.8449   -13059.638    838.36117    24227.228    28.935739    1.0762634 
 2300000    293.30578   -11194.187     1537.874   -1254.8161     1917.284   -13061.199   -570.79845    24583.422    29.076856    1.0606692 
 2305000    298.28275   -11174.668    1563.9695   -1266.9922     1905.967   -13059.322    1983.0794    24283.305    28.958047     1.073778 
 2310000    307.20739   -11154.467    1610.7636   -1228.9474     1922.042   -13059.567    395.48909    24234.914    28.938798     1.075922 
 2315000    287.76692   -11223.238    1508.8324    -1258.314    1896.4768    -13055.89    12.731428    24330.214    28.976681    1.0717077 
 2320000    309.02573   -11213.844    1620.2976   -1239.4323    1846.7907   -13060.797   -204.88623    24350.495     28.98473    1.0708151 
 2325000    292.64189   -11211.328    1534.3931   -1245.3336    1903.3958   -13058.387    294.78026    24443.294    29.021504    1.0667497 
 2330000    290.62376   -11195.787    1523.8115    -1216.627    1884.9358   -13053.485   -428.19169     24336.83    28.979307    1.0714164 
 2335000    295.78952   -11217.998    1550.8969   -1234.9872    1891.7527   -13056.569    467.38375    24344.289    28.982268    1.0710881 
 2340000     297.5181   -11157.011    1559.9603   -1274.2776    1965.0269   -13060.764   -158.70295    24705.726    29.124996    1.0554184 
 2345000    284.82951   -11142.039    1493.4308   -1257.0866    1968.1718   -13055.802   -426.48473    24459.176    29.027788    1.0660571 
 2350000    302.52329   -11209.093    1586.2037   -1214.4204    1864.4512   -13053.812    659.42185    24572.771    29.072656    1.0611289 
 2355000    297.74842   -11221.927    1561.1679   -1189.5532    1850.9614   -13054.925    134.79765    24544.155    29.061366    1.0623661 
 2360000    302.21356   -11201.959    1584.5797   -1209.5917    1928.8548   -13054.375   -267.06867    24363.731    28.989981    1.0702334 
 2365000     294.7624   -11162.423    1545.5114   -1257.3647    1964.9415   -13051.457    689.19526    24536.792     29.05846    1.0626849 
 2370000    301.57912   -11145.946    1581.2532   -1196.7023    1884.2234   -13056.751     1091.976    24457.188    29.027001    1.0661438 
 2375000    296.26822   -11160.253    1553.4068   -1283.0304    1978.8706   -13056.768    1570.6026     24506.53    29.046509    1.0639971 
 2380000    293.63577   -11180.303    1539.6042   -1244.2365     1890.666   -13053.621    187.45898    24302.587    28.965709     1.072926 
 2385000    301.65394   -11221.894    1581.6455   -1241.4981     1883.708   -13054.152    1782.9744    24339.902    28.980527    1.0712811 
 2390000    299.56868   -11183.317    1570.7119   -1247.3826    1948.7228   -13055.379   -315.27224    24708.833    29.126217    1.0552857 
 2395000    308.70101   -11196.322     1618.595   -1229.3388    1879.6593   -13055.004   -218.14845     24751.51    29.142976    1.0534662 
 2400000    300.86882   -11173.289    1577.5289   -1303.0503     2038.295   -13059.997   -1891.9972    24646.807    29.101825    1.0579414 
 2405000    297.92462   -11233.489    1562.0917    -1296.554    1959.5825   -13056.192    -759.1182    24723.812    29.132101    1.0546464 
 2410000    293.26851   -11181.753    1537.6786   -1223.5197    1934.6982   -13052.371   -73.466781    24694.776    29.120692    1.0558864 
 2415000    299.24566    -11161.59    1569.0183   -1208.5832    1937.5626   -13056.711      60.5496      24474.1    29.033691     1.065407 
 2420000    305.33148   -11182.239    1600.9277   -1160.0243     1851.678   -13056.087    1595.8151    24509.678    29.047752    1.0638605 
 2425000    292.98809   -11210.598    1536.2083   -1257.7516     1953.661    -13059.37   -702.30864    24725.733    29.132856    1.0545644 
 2430000    287.62131    -11196.27     1508.069   -1185.7159    1844.8977   -13062.146    1277.2822    24503.044    29.045131    1.0641485 
 2435000    299.47721   -11259.152    1570.2323   -1240.0857    1888.3802   -13058.555    151.90051    24492.128    29.040818    1.0646228 
 2440000    306.31893   -11128.344    1606.1051   -1228.9443    1915.0302   -13053.582   -88.469125    24349.429    28.984307     1.070862 
 2445000      306.966   -11234.387    1609.4979   -1251.6865    1881.7811   -13060.742   -372.21541    24322.265    28.973525     1.072058 
 2450000    296.26234   -11205.057     1553.376   -1229.5045    1879.5994   -13062.253    823.66682    24192.614    28.921952    1.0778033 
 2455000    291.52405   -11173.891     1528.532   -1239.8152    1920.8153   -13056.205   -707.93711    24587.825    29.078592    1.0604792 
 2460000    291.11168   -11215.418    1526.3698   -1247.4964    1898.3587   -13060.575   -604.04904    24294.091    28.962334    1.0733012 
 2465000    301.16028   -11184.678    1579.0571   -1279.5844    1916.9249   -13056.811   -597.89781    24373.532    28.993868     1.069803 
 2470000     308.6293   -11185.525     1618.219   -1214.8014    1873.8265   -13060.288   -645.21369    24556.843    29.066373    1.0618172 
 2475000    297.05825   -11127.398    1557.5492   -1180.5461    1881.5603   -13060.407   -345.68984    24717.251    29.129524    1.0549263 
 2480000    291.38064   -11260.416      1527.78   -1241.7783    1905.7837   -13058.982    221.59242    24494.951    29.041933    1.0645001 
 2485000    291.53648   -11196.829    1528.5972   -1257.5319    1935.7746   -13063.078   -500.19559    24493.728     29.04145    1.0645533 
 2490000    289.26518   -11211.982    1516.6882   -1269.4623     1933.227   -13062.645   -734.94982    24508.047    29.047108    1.0639313 
 2495000    292.30435   -11207.731    1532.6233   -1188.1741    1869.5295    -13061.81     496.8006    24400.459    29.004541    1.0686224 
 2500000    296.76187   -11257.039    1555.9951   -1158.8315    1833.0046   -13054.213   -355.49903    24512.248    29.048768    1.0637489 
 2505000    295.73018   -11190.988    1550.5857     -1223.53    1884.8315   -13056.426    102.67538    24669.073    29.110586    1.0569865 
 2510000     298.6603   -11221.463    1565.9491   -1220.6887    1904.3197    -13059.03   -340.39773    24596.054    29.081835    1.0601244 
 2515000    302.40848   -11251.909    1585.6017   -1251.9963    1924.1888    -13059.12   -1266.6634    24458.041    29.027339    1.0661066 
 2520000    303.70885    -11275.91    1592.4199   -1221.4425    1845.7893   -13061.045    1836.8127    24233.173    28.938105    1.0759993 
 2525000    297.42908     -11271.4    1559.4935   -1232.7636    1874.5347   -13065.068   -1111.8102    24401.589    29.004989     1.068573 
 2530000    292.17449   -11271.514    1531.9424   -1245.8283    1846.2236   -13060.165    67.901821    24125.806    28.895305    1.0807878 
 2535000    296.00986   -11204.029    1552.0522   -1237.2423    1923.9093   -13055.586    -743.3705    24359.275    28.988214    1.0704291 
 2540000    296.06631   -11203.408    1552.3482   -1247.4684    1910.3396   -13052.776    -467.6719    24483.367    29.037355    1.0650038 
 2545000    296.69216   -11221.615    1555.6296   -1209.4627    1864.2693   -13060.872     280.4888    24309.401    28.968416    1.0726253 
 2550000    289.44149   -11095.296    1517.6126   -1211.3752    1879.5535   -13060.171    179.15826    24419.535    29.012097    1.0677877 
 2555000    302.96852   -11189.322    1588.5381   -1226.0135    1849.1938   -13058.963    274.37236     24376.74     28.99514    1.0696622 
 2560000    292.08449   -11198.963    1531.4705   -1255.8156    1908.4496   -13056.676   -116.03936    24422.717    29.013358    1.0676485 
 2565000    312.15071   -11162.813    1636.6826   -1222.9669    1915.6972   -13059.212    824.17135    24494.928    29.041924    1.0645011 
 2570000    300.34244   -11168.348     1574.769   -1240.0091    1939.9712   -13060.949   -1132.8745    24605.472    29.085547    1.0597187 
 2575000    306.55483   -11180.487     1607.342   -1251.2208    1887.5974   -13058.592    643.45671    24441.542     29.02081    1.0668262 
 2580000    308.06824   -11241.424    1615.2772   -1219.2364    1832.7816   -13062.696    1300.4694    24136.953    28.899754    1.0802887 
 2585000    289.46066   -11177.683    1517.7131   -1232.8108      1889.81   -13056.277   -1065.1053    24660.469    29.107201    1.0573553 
 2590000    299.49821   -11218.027    1570.3425   -1206.8555    1877.9315   -13056.073    1375.4482    24410.978    29.008709     1.068162 
 2595000    293.59341    -11181.09    1539.3822   -1206.3741    1906.5523   -13055.067     362.6156    24701.654    29.123396    1.0555924 
 2600000    298.62442   -11204.357     1565.761   -1289.5063    1916.1294   -13061.949   -876.50008    24395.693    29.002652    1.0688312 
 2605000    296.69145   -11218.478    1555.6259   -1195.6072    1856.3528   -13055.135    703.25843    24458.405    29.027483    1.0660907 
 2610000    297.92777   -11201.149    1562.1082   -1259.4593    1925.5627   -13063.239   -725.04128     24390.23    29.000488    1.0690706 
 2615000     295.9201   -11214.306    1551.5815   -1283.4966    1924.5316   -13059.005    47.903646    24318.135    28.971885    1.0722401 
 2620000    289.76036   -11256.174    1519.2845   -1214.2008    1843.4036   -13060.058     17.70256    24137.114    28.899818    1.0802815 
 2625000    296.47658   -11162.495    1554.4993   -1201.5817    1890.1838   -13053.265   -937.51141    24555.516     29.06585    1.0618746 
 2630000    297.92536   -11204.378    1562.0956   -1233.4871    1906.7222   -13059.779    976.08842    24504.757    29.045808    1.0640741 
 2635000    303.14115   -11237.525    1589.4433   -1258.8742    1902.7146   -13057.206    840.89665    24218.198    28.932143    1.0766647 
 2640000    303.01244   -11197.497    1588.7684   -1259.7725    1918.1096   -13056.669    30.034537    24352.926    28.985695    1.0707082 
 2645000    299.37194   -11150.568    1569.6804    -1199.866    1901.9507   -13061.588    753.79545    24688.957    29.118405    1.0561352 
 2650000     297.8548   -11231.777    1561.7256   -1248.8139    1903.7178    -13059.78   -640.93533    24547.817    29.062811    1.0622076 
 2655000    302.51135   -11213.081    1586.1411   -1206.0222    1887.6843   -13058.917    1079.6839    24557.055    29.066457     1.061808 
 2660000    295.57013   -11205.777    1549.7466   -1188.3965    1866.9664   -13061.584   -638.09835     24589.68    29.079323    1.0603992 
 2665000    297.54848   -11212.983    1560.1196   -1157.1709     1830.122   -13057.917    1531.5855    24414.001    29.009906    1.0680297 
 2670000    294.27742   -11227.651    1542.9686   -1266.6231    1903.6193   -13061.203   -589.66418    24374.851    28.994391    1.0697451 
 2675000    305.73993   -11165.748    1603.0693   -1259.4042    1937.0757   -13056.854   -1050.9354    24526.601    29.054436    1.0631264 
 2680000    294.92769   -11282.549    1546.3781   -1297.8701    1934.6482   -13054.246   -1285.4424     24598.39    29.082756    1.0600238 
 2685000    304.57283   -11228.903    1596.9499   -1235.3909    1873.7807   -13055.073     1126.582    24378.222    28.995727    1.0695972 
 2690000     302.2135   -11130.676    1584.5794   -1279.5915    1969.8255   -13058.217   -697.07805     24665.11    29.109027    1.0571564 
 2695000    302.96584   -11268.113    1588.5241   -1266.8229     1875.017   -13061.534    197.99254    24398.664     29.00383     1.068701 
 2700000    297.71569     -11148.8    1560.9963   -1229.5922    1925.2532   -13059.242   -1143.3489    24556.721    29.066325    1.0618225 
 2705000     305.5358   -11186.746     1601.999   -1274.6531    1920.4611   -13058.767    591.94318    24304.537    28.966484    1.0728399 
 2710000    296.22879   -11230.236    1553.2001   -1267.7081    1891.5704   -13057.433     179.3408    24214.663    28.930736    1.0768218 
 2715000    294.55495   -11280.963    1544.4237   -1282.0023    1900.6286   -13060.885   -22.227761    24090.452    28.881183     1.082374 
 2720000    306.02053    -11177.96    1604.5406   -1296.7495    1974.0569    -13058.84    -279.3779    24418.123    29.011538    1.0678494 
 2725000     295.4484   -11266.574    1549.1083   -1261.3589    1859.8146   -13056.399   -203.03306    24286.926    28.959486    1.0736179 
 2730000     300.9898   -11183.547    1578.1632   -1203.3483    1895.1821   -13058.957    75.767501     24420.28    29.012393    1.0677551 
 2735000     299.8002   -11193.386    1571.9259   -1211.5179    1864.2637   -13055.984   -766.66532    24391.198    29.000871    1.0690282 
 2740000    305.67618   -11184.652     1602.735   -1275.2863    1986.3716   -13056.196    -1889.765    24546.357    29.062235    1.0622708 
 2745000    295.36638    -11213.92    1548.6783   -1196.0155    1874.4618   -13054.442    1047.4976    24710.522     29.12688    1.0552136 
 2750000    299.67662   -11221.434    1571.2779    -1227.659    1847.4915   -13061.642    217.34195    24341.957    28.981342    1.0711907 
 2755000    312.73822   -11172.747    1639.7631   -1216.8623    1914.0344   -13056.075     799.9606     24405.78    29.006649    1.0683895 
 2760000    298.97817   -11208.029    1567.6157   -1240.1732    1877.1671   -13065.757     1051.563    24311.417    28.969217    1.0725364 
 2765000    296.39282   -11185.499    1554.0601   -1208.9725    1882.8582   -13059.283    831.41162    24440.967    29.020583    1.0668513 
 2770000    306.30975   -11190.418    1606.0571   -1197.7397    1877.9499     -13052.4   -378.45469    24639.944    29.099123    1.0582361 
 2775000    298.93743   -11194.243    1567.4021   -1242.4907    1923.0556    -13055.61   -702.94249     24296.66    28.963355    1.0731877 
[...]
 9355000    298.82995   -11221.798    1566.8386   -1278.5241    1901.0412   -13062.611    309.54063    24502.326    29.044848    1.0641797 
 9360000    295.08028   -11224.249    1547.1782   -1292.2761    1949.7678   -13061.174   -535.84218    24463.025     29.02931    1.0658894 
 9365000    300.50573   -11286.031    1575.6251   -1288.1749    1902.0734    -13064.46    72.492781    24216.723    28.931556    1.0767302 
 9370000    298.19063   -11250.809    1563.4865   -1214.0304    1835.5784   -13063.416    957.66769      24376.8    28.995164    1.0696596 
 9375000    293.97132   -11275.348    1541.3636   -1265.2496    1889.0987   -13066.414   -632.87582    24574.783     29.07345     1.061042 
 9380000    291.49906   -11218.155    1528.4009   -1211.3562    1871.0098   -13055.581    1071.2489    24298.625    28.964135     1.073101 
 9385000    302.30402   -11190.409     1585.054   -1281.4317    1924.4232   -13059.751    31.221402    24345.448    28.982728    1.0710371 
 9390000    299.52836   -11274.033    1570.5005    -1243.713    1888.5323   -13063.244    1201.7012    24200.717    28.925181    1.0774424 
 9395000     295.9102   -11201.779    1551.5297   -1281.0337    1951.3785   -13053.772    1064.6146    24162.295    28.909865    1.0791557 
 9400000    299.40322   -11221.624    1569.8444   -1264.0205    1871.3621   -13066.197   -1006.5095    24312.964    28.969831    1.0724681 
 9405000     304.0929    -11218.43    1594.4335   -1256.4467    1893.8964   -13063.398   -1926.0956    24426.126    29.014707    1.0674996 
 9410000    292.79896   -11244.636    1535.2166   -1288.9254    1933.6113   -13056.606    440.98731    24403.092    29.005584    1.0685071 
 9415000    290.66744   -11278.913    1524.0406    -1237.812     1831.374   -13060.349   -528.17807    24314.151    28.970303    1.0724157 
 9420000    299.02008    -11237.91    1567.8355   -1299.6438    1934.7117   -13060.425   -465.25375    24568.317    29.070899    1.0613213 
 9425000    301.31388   -11251.417    1579.8625   -1245.0974    1883.8104   -13067.571    64.884552      24296.4    28.963251    1.0731992 
 9430000    296.49402   -11227.891    1554.5907    -1292.366    1919.5588   -13061.679    706.60319    24427.777    29.015361    1.0674274 
 9435000    297.47192   -11193.542    1559.7181   -1258.6519     1929.198    -13060.46    -1480.909    24629.743    29.095107    1.0586744 
 9440000    296.64069   -11241.584    1555.3598   -1256.4733    1871.5547   -13058.856   -191.64753    24570.546    29.071779     1.061225 
 9445000    294.53437   -11199.837    1544.3158   -1239.0938    1916.0687   -13058.649   -12.115319      24520.4    29.051987    1.0633953 
 9450000    280.51207   -11247.659    1470.7935   -1252.8348    1894.7152   -13061.713    1315.5499    24329.357    28.976341    1.0717455 
 9455000    291.80175   -11250.497     1529.988   -1257.3639    1901.1896   -13062.536     31.05428    24363.365    28.989836    1.0702494 
 9460000    294.79091   -11172.569    1545.6609   -1284.5442    1943.6616   -13058.893   -806.55956    24443.136    29.021441    1.0667566 
 9465000    302.94062   -11215.216    1588.3918   -1242.2173    1858.5882   -13055.699    -412.1451    24420.484    29.012473    1.0677462 
 9470000    294.36395   -11198.419    1543.4223   -1232.8746    1889.1642     -13060.6     523.7525    24353.702    28.986003    1.0706741 
 9475000    296.95696   -11230.484    1557.0181   -1282.3483    1880.6325    -13060.63   -521.94224    24217.646    28.931923    1.0766892 
 9480000    301.26313   -11236.439    1579.5964   -1257.2121    1895.3143   -13059.787    1681.0747    24154.445    28.906734    1.0795064 
 9485000     287.4284   -11228.902    1507.0575   -1225.5013    1861.4648   -13062.766    352.82694    24459.065    29.027744    1.0660619 
 9490000    298.54645   -11194.191    1565.3521   -1211.4454    1893.8653   -13059.725    531.46178    24520.762    29.052131    1.0633796 
 9495000     295.6842   -11213.451    1550.3447   -1256.2914    1889.0476   -13059.501    153.94444    24449.997    29.024156    1.0664573 
 9500000    301.75573   -11284.482    1582.1792   -1285.6763    1915.9515   -13061.485   -259.63373    24489.628    29.039829    1.0647315 
 9505000     296.6435   -11286.233    1555.3745    -1286.269     1901.434   -13060.117   -975.12581    24342.752    28.981658    1.0711557 
 9510000    299.08716   -11262.153    1568.1872   -1252.2491    1881.3854   -13064.523    1581.5261    24175.097     28.91497    1.0785842 
 9515000    285.39471   -11206.177    1496.3944   -1270.7126    1902.2307   -13063.455    131.35942    24385.754    28.998713    1.0692668 
 9520000        295.8   -11214.109    1550.9518    -1260.904     1900.125   -13056.437    530.77053    24356.049    28.986934    1.0705709 
 9525000    290.32786   -11231.421    1522.2601   -1234.4101    1872.1055   -13065.999    772.98174    24614.777    29.089213    1.0593181 
 9530000    309.24339   -11199.623    1621.4388   -1277.2602    1899.4391   -13059.457   -499.27048    24415.673    29.010568    1.0679566 
 9535000    286.04796   -11241.354    1499.8195    -1233.547    1837.8502   -13058.826    840.58845    24229.029    28.936456    1.0761834 
 9540000    297.24054   -11179.057    1558.5049   -1286.4657    1916.7941   -13059.702   -32.192285    24315.265    28.970745    1.0723666 
 9545000     299.1782   -11153.104    1568.6646   -1223.9917    1888.3887   -13054.259   -637.16428    24639.831    29.099079    1.0582409 
 9550000    296.04567   -11213.667      1552.24   -1222.3529    1868.7294   -13061.254   -662.03946    24502.891    29.045071    1.0641551 
 9555000    294.00944    -11189.98    1541.5635   -1248.4388    1890.1965   -13057.982    183.69533    24368.466    28.991859    1.0700254 
 9560000    299.04952   -11152.351    1567.9899   -1235.0881    1918.5616   -13057.835   -738.55652    24639.502    29.098949    1.0582551 
 9565000     299.4228   -11242.921    1569.9471    -1238.395    1869.7784   -13065.618   -497.92988    24376.788    28.995159    1.0696601 
 9570000      298.791   -11291.301    1566.6344   -1232.7197    1857.4889    -13062.57   -121.12353    24264.441    28.950546    1.0746128 
 9575000     294.6755   -11225.774    1545.0558   -1291.2374    1933.1953   -13063.831   -884.95421    24421.584    29.012909     1.067698 
 9580000    292.61423   -11230.099    1534.2481   -1215.1595      1825.73   -13064.066   -980.27388     24524.84    29.053741    1.0632028 
 9585000    300.52785   -11217.411    1575.7411   -1257.0282    1922.3829   -13060.667   -224.67316    24651.639    29.103726    1.0577341 
 9590000    302.63346   -11273.708    1586.7813   -1205.6618    1841.1047   -13064.097   -1061.9526    24643.414    29.100489    1.0580871 
 9595000    296.78544   -11236.998    1556.1187   -1261.4358    1884.8287   -13059.984   -386.06841    24339.236    28.980263    1.0713104 
 9600000    300.72378   -11175.496    1576.7684   -1236.4077    1908.2994   -13061.668    183.46968    24636.549    29.097787    1.0583819 
 9605000    295.42012   -11248.137      1548.96   -1302.4189    1923.0392   -13057.692   -537.84974    24411.056    29.008739    1.0681586 
 9610000    292.69995   -11215.558    1534.6975   -1258.8358    1901.8027   -13059.351     648.5592    24325.366    28.974757    1.0719213 
 9615000    291.24078   -11166.686    1527.0467   -1182.3013    1909.0598   -13059.157    266.33207    24822.914    29.170973    1.0504358 
 9620000    295.11369   -11270.476    1547.3533   -1238.4259     1858.114    -13051.93   -63.862546    24447.449    29.023148    1.0665684 
 9625000    292.23096   -11186.085    1532.2385   -1266.0545    1924.6205   -13063.666    471.03636    24554.472    29.065438    1.0619197 
 9630000    299.67019   -11242.346    1571.2442   -1210.3713    1883.9944   -13061.292    1078.9727    24519.501    29.051633    1.0634343 
 9635000    301.79401   -11156.097    1582.3799   -1191.4066    1896.0985   -13058.338    769.80667    24697.834    29.121895    1.0557556 
 9640000    297.22252   -11214.731    1558.4105   -1221.1485    1878.0669   -13062.212    1777.1211    24406.317    29.006862    1.0683659 
 9645000    290.58137   -11198.171    1523.5893   -1222.3347    1901.7323   -13059.234   -543.36098     24740.02    29.138466    1.0539554 
 9650000    301.38388   -11212.653    1580.2295   -1194.3555    1838.2055   -13064.944    923.90665     24472.42    29.033026    1.0654802 
 9655000    292.71694   -11197.799    1534.7866   -1201.9168      1886.64   -13059.302    2034.9438     24654.02    29.104664    1.0576319 
 9660000    313.68245   -11276.583    1644.7139   -1250.0023    1884.1633    -13064.98    363.96864    24540.747    29.060021    1.0625136 
 9665000    303.28936   -11245.066    1590.2204   -1243.1099    1901.7157   -13061.302   -699.90004    24553.771    29.065161      1.06195 
 9670000     298.3391   -11254.302    1564.2649   -1196.6299    1826.5032     -13059.4   -74.216921     24298.07    28.963915    1.0731255 
 9675000    298.93854   -11196.713    1567.4079   -1226.7552    1879.2977   -13061.145   -231.74987    24636.002    29.097571    1.0584054 
 9680000    300.84967   -11247.048    1577.4285   -1255.6238    1894.8085   -13055.516    1039.4257    24414.154    29.009966     1.068023 
 9685000    303.40183   -11269.913    1590.8101   -1230.2672    1847.4077   -13062.893   -34.085728    24393.489    29.001779    1.0689278 
 9690000    294.99548   -11206.636    1546.7336   -1266.9283    1913.0888   -13059.408    574.79363    24151.154    28.905421    1.0796535 
 9695000    296.99103   -11239.539    1557.1967   -1290.1397    1925.1379   -13061.464   -679.55967    24537.226    29.058631    1.0626661 
 9700000    302.50892   -11230.738    1586.1283   -1260.8519    1853.7585   -13062.152    391.89787    24229.882    28.936795    1.0761455 
 9705000    303.10255   -11168.248    1589.2409   -1199.7707    1886.8767   -13061.674    843.92473    24494.864    29.041899    1.0645039 
 9710000    300.41381    -11236.39    1575.1431   -1274.3737    1932.7769   -13056.914   -29.113237     24299.12    28.964332    1.0730791 
 9715000     299.4583   -11188.416    1570.1332    -1249.465    1899.7448   -13060.851    302.31769    24528.976    29.055374    1.0630235 
 9720000    293.61887   -11233.132    1539.5157   -1233.2219    1857.8723    -13062.41      282.422    24604.621    29.085212    1.0597553 
 9725000    294.70773   -11266.477    1545.2248   -1264.0685    1894.9805   -13058.959   -596.01896    24224.605    28.934694    1.0763799 
 9730000    296.91285   -11242.312    1556.7868   -1281.9505     1909.686   -13060.157    374.10689    24480.358    29.036165    1.0651347 
 9735000    298.70081   -11218.944    1566.1615   -1272.5986    1888.8685   -13060.331   -475.81568    24224.292     28.93457    1.0763938 
 9740000    296.19919   -11265.103    1553.0449   -1205.6425    1849.4655   -13065.289   -716.09818    24158.206    28.908234    1.0793384 
 9745000    288.58931   -11237.497    1513.1444   -1256.7296    1885.8852   -13061.835   -1408.4852    24272.687    28.953825    1.0742477 
 9750000    303.03005   -11196.222    1588.8608   -1265.3825    1927.0276   -13060.231   -327.02793    24490.446    29.040153    1.0646959 
 9755000    300.38115   -11275.434    1574.9719   -1261.7651    1858.0981   -13063.345   -1100.7747    24435.425    29.018389    1.0670933 
 9760000    285.12506   -11336.257    1494.9805   -1251.5968    1837.5902   -13065.219    706.22191    24271.703    28.953434    1.0742912 
 9765000    314.15528   -11219.932    1647.1931   -1281.2306    1922.1965   -13059.603   -220.84408    24492.181    29.040838    1.0646205 
 9770000    297.74354   -11219.211    1561.1423   -1264.5019    1919.4311   -13063.058    245.95948    24664.685     29.10886    1.0571746 
 9775000    298.71794   -11187.319    1566.2513   -1233.1796    1884.1213   -13060.311    339.97703    24269.207    28.952442    1.0744017 
 9780000    295.87641   -11201.807    1551.3525   -1245.5735    1905.7244   -13060.631   -870.29205    24663.757    29.108494    1.0572144 
 9785000      299.985   -11228.914    1572.8948   -1181.0181    1811.7631   -13061.553    824.54822    24254.555    28.946614    1.0750508 
 9790000    299.53209    -11225.83    1570.5201   -1281.7223    1943.3321   -13060.537   -157.40441    24413.841    29.009842    1.0680367 
 9795000    289.29205   -11243.297     1516.829   -1233.6649    1873.7288   -13060.308     617.8543    24432.879    29.017381    1.0672045 
 9800000    295.06096   -11211.985    1547.0769   -1285.7243    1928.8477   -13060.724    234.02439     24323.35    28.973956    1.0720102 
 9805000    298.14948   -11245.802    1563.2707   -1194.6803    1831.2298   -13066.732   -527.37865    24365.101    28.990525    1.0701732 
 9810000     305.6184   -11252.995    1602.4321    -1292.934    1908.9518   -13057.749    1127.0871    24159.329    28.908682    1.0792882 
 9815000    303.29465   -11199.029    1590.2481   -1243.1811    1874.2779   -13063.114    1440.4045    24300.488    28.964876    1.0730187 
 9820000    308.17185   -11265.842    1615.8205   -1274.0329    1878.6549   -13061.516   -256.73619    24183.626     28.91837    1.0782038 
 9825000     293.6509   -11160.491    1539.6836   -1272.0333    1959.9816    -13057.87   -1419.9014    24568.627    29.071022    1.0613079 
 9830000    300.00902   -11270.911    1573.0208   -1230.0161    1880.5066   -13063.212    1223.5962    24309.018    28.968264    1.0726422 
 9835000     291.3038   -11256.908    1527.3772   -1228.5591    1847.4058   -13058.766    714.95509    24154.487     28.90675    1.0795045 
 9840000    291.59389   -11226.938    1528.8981   -1291.4634    1922.7725    -13059.18   -1003.4448    24326.977    28.975396    1.0718503 
 9845000    295.71428    -11275.73    1550.5024   -1238.6039    1832.7042   -13059.756   -627.58518     24348.55    28.983959    1.0709007 
 9850000    298.17796    -11270.94    1563.4201   -1203.1295     1823.535    -13064.66    -1644.895    24383.137    28.997676    1.0693816 
 9855000    294.24853   -11211.939    1542.8171   -1266.4357    1915.8424   -13058.327   -190.48382    24501.726    29.044611    1.0642058 
 9860000    288.66429   -11210.789    1513.5376    -1269.488    1918.6042   -13061.134    583.22537    24376.589     28.99508    1.0696688 
 9865000    302.44922   -11292.461    1585.8153   -1270.4883    1884.4976   -13066.028    304.46624    24496.248    29.042446    1.0644437 
 9870000    303.23457    -11246.38    1589.9331   -1227.8615     1854.364   -13060.556    954.52345    24313.426    28.970015    1.0724477 
 9875000     293.9988   -11243.908    1541.5077   -1269.9881    1917.0651   -13060.501   -2086.3767    24653.242    29.104357    1.0576653 
 9880000    293.18881   -11233.119    1537.2607   -1210.8576    1852.2006   -13058.725   -555.16056    24430.531    29.016452    1.0673071 
 9885000    299.76782   -11182.481    1571.7561   -1236.1731    1907.2327   -13064.543   -1962.2073    24572.598    29.072588    1.0611364 
 9890000    287.51272   -11244.776    1507.4996     -1253.99    1932.2051   -13062.037   -344.50419    24604.807    29.085285    1.0597473 
 9895000    293.76567   -11249.556    1540.2854   -1274.8922    1940.3142    -13060.32    529.71542    24514.825    29.049786    1.0636371 
 9900000    301.87494   -11189.296    1582.8042   -1270.7918    1941.9813   -13060.336   -347.47698    24541.357    29.060262    1.0624872 
 9905000    297.32724   -11269.838    1558.9595   -1306.5878    1941.4153   -13059.113   -2163.4841    24444.061    29.021807    1.0667163 
 9910000    287.84349   -11191.603    1509.2339   -1230.2028    1899.0016   -13059.785    94.120987    24516.471    29.050436    1.0635657 
 9915000    301.84625   -11170.684    1582.6538   -1296.2179    1968.6486   -13059.198   -457.19435    24336.517    28.979183    1.0714302 
 9920000    295.49513   -11187.406    1549.3533   -1223.8553     1905.604   -13060.884     394.5962    24338.143    28.979829    1.0713586 
 9925000     294.6767   -11267.042    1545.0621   -1288.6484    1903.4736   -13062.718   -718.78329    24342.792    28.981674     1.071154 
 9930000    292.84026    -11258.24    1535.4332   -1313.1626    1902.4846    -13063.12      225.342    24272.778    28.953862    1.0742437 
 9935000    297.31323   -11212.592    1558.8861   -1235.9633    1894.4102   -13059.699   -1197.6377    24409.319    29.008051    1.0682346 
 9940000    296.08997   -11270.698    1552.4722   -1297.8308    1903.3778   -13063.832   -1399.7796    24531.961    29.056553    1.0628942 
 9945000    303.22852   -11258.516    1589.9014   -1269.4554    1864.1296   -13053.098    834.82768    24254.685    28.946666     1.075045 
 9950000    298.28295   -11216.838    1563.9706   -1195.9838    1832.7096    -13058.29      2052.64    24516.481     29.05044    1.0635653 
 9955000    296.49468   -11281.395    1554.5942   -1209.1226    1851.6272    -13063.84   -242.49783    24383.947    28.997997    1.0693461 
 9960000    300.08686   -11296.046    1573.4289   -1219.6286    1806.4158   -13062.999    772.62407    24150.638    28.905215    1.0796766 
 9965000    286.12805   -11248.828    1500.2395   -1287.9135    1894.3464   -13057.694    1037.3717    24293.642    28.962155    1.0733211 
 9970000    311.29997   -11186.137     1632.222   -1306.9503    1945.1122   -13062.141    1273.5131    24233.348    28.938175    1.0759916 
 9975000    307.59341   -11235.941    1612.7875   -1260.8392    1914.0085   -13062.271   -1001.4414    24855.791    29.183846    1.0490464 
 9980000    292.72352    -11258.11    1534.8211   -1233.0047    1887.5788   -13063.941   -391.66829      24608.3    29.086661    1.0595969 
 9985000    301.06362   -11251.762    1578.5503   -1264.9667    1875.7473   -13056.372    729.67534    24154.129    28.906608    1.0795205 
 9990000     308.8443    -11264.19    1619.3463     -1250.16    1847.2846   -13061.089    422.87733    24465.121     29.03014     1.065798 
 9995000    299.51632   -11223.576    1570.4374   -1293.5222    1905.7319   -13060.624   -389.42442    24404.988    29.006336    1.0684241 
10000000    295.97821   -11175.975    1551.8862   -1239.9901    1908.2151   -13057.895   -437.61641    24502.427    29.044888    1.0641753 
Loop time of 63324.3 on 16 procs for 10000000 steps with 2160 atoms

Performance: 13.644 ns/day, 1.759 hours/ns, 157.917 timesteps/s
91.5% CPU use with 16 MPI tasks x 1 OpenMP threads

MPI task timing breakdown:
Section |  min time  |  avg time  |  max time  |%varavg| %total
---------------------------------------------------------------
Pair    | 22869      | 24652      | 25990      | 590.2 | 38.93
Bond    | 1245.3     | 1331.8     | 1406.1     | 110.6 |  2.10
Kspace  | 18671      | 19921      | 21810      | 665.2 | 31.46
Neigh   | 1351.6     | 1357.4     | 1362.7     |   8.4 |  2.14
Comm    | 5551.5     | 5717.3     | 5959.8     | 192.0 |  9.03
Output  | 3.8339     | 3.8552     | 4.1689     |   4.1 |  0.01
Modify  | 6823.6     | 8739.3     | 9589.4     |1207.1 | 13.80
Other   |            | 1602       |            |       |  2.53

Nlocal:        135.000 ave         148 max         124 min
Histogram: 2 2 1 0 2 5 2 0 1 1
Nghost:        5488.31 ave        5574 max        5375 min
Histogram: 1 1 1 2 2 3 1 0 2 3
Neighs:        68382.9 ave       75974 max       59209 min
Histogram: 1 2 1 0 0 4 4 2 0 2

Total # of neighbors = 1094126
Ave neighs/atom = 506.53981
Ave special neighs/atom = 6.5555556
Neighbor list builds = 336509
Dangerous builds = 0
System init for write_data ...
PPPM initialization ...
  using 12-bit tables for long-range coulomb (src/kspace.cpp:339)
  G vector (1/distance) = 0.26894243
  grid = 27 27 27
  stencil order = 5
  estimated absolute RMS force accuracy = 0.00029137611
  estimated relative force accuracy = 8.7747049e-07
  using double precision FFTW3
  3d grid and FFT values/proc = 5600 1458
Total wall time: 17:35:24
